unknown system                          
   1.00000000000000     
     0.000000    2.189780    2.189780
     2.189780    0.000000    2.189780
     2.189780    2.189780    0.000000
   Si   C 
     1     1
Direct
  0.250000  0.250000  0.250000
  0.000000  0.000000  0.000000
 
   48   48   48
  27.978      28.761      30.801      33.299      35.311      36.109      35.403      33.346      30.377      26.998    
  23.612      20.446      17.612      15.182      13.150      11.469      10.074      8.9135      7.9464      7.1497    
  6.5096      6.0194      5.6734      5.4680      5.3998      5.4680      5.6734      6.0194      6.5096      7.1497    
  7.9464      8.9135      10.074      11.469      13.150      15.182      17.612      20.446      23.612      26.998    
  30.377      33.346      35.403      36.109      35.311      33.299      30.801      28.761      28.761      30.220    
  32.561      34.883      36.323      36.369      34.962      32.419      29.224      25.836      22.567      19.571    
  16.941      14.714      12.857      11.312      10.020      8.9354      8.0283      7.2833      6.6929      6.2536    
  5.9627      5.8179      5.8179      5.9627      6.2536      6.6929      7.2833      8.0283      8.9354      10.020    
  11.312      12.857      14.714      16.941      19.571      22.567      25.836      29.224      32.418      34.962    
  36.369      36.323      34.882      32.561      30.220      28.761      30.801      32.561      34.688      36.336    
  36.859      36.006      33.926      31.021      27.748      24.470      21.392      18.627      16.244      14.237    
  12.558      11.146      9.9520      8.9408      8.0940      7.4031      6.8667      6.4839      6.2549      6.1784    
  6.2549      6.4839      6.8667      7.4031      8.0940      8.9408      9.9520      11.146      12.558      14.237    
  16.244      18.627      21.392      24.470      27.748      31.021      33.926      36.006      36.859      36.336    
  34.688      32.561      30.801      30.121      33.299      34.883      36.336      37.004      36.511      34.844    
  32.279      29.219      26.032      22.962      20.142      17.662      15.546      13.760      12.250      10.964    
  9.8617      8.9219      8.1357      7.5025      7.0245      6.7045      6.5440      6.5440      6.7045      7.0245    
  7.5025      8.1357      8.9219      9.8617      10.964      12.250      13.760      15.546      17.662      20.142    
  22.962      26.032      29.219      32.279      34.843      36.511      37.004      36.336      34.882      33.299    
  32.283      32.283      35.311      36.323      36.859      36.511      35.151      32.925      30.145      27.143    
  24.175      21.387      18.883      16.714      14.863      13.287      11.932      10.759      9.7420      8.8711    
  8.1461      7.5720      7.1559      6.9036      6.8191      6.9036      7.1559      7.5720      8.1461      8.8711    
  9.7419      10.759      11.932      13.287      14.863      16.714      18.883      21.387      24.175      27.143    
  30.145      32.925      35.151      36.511      36.859      36.323      35.311      34.379      34.005      34.379    
  36.109      36.369      36.006      34.844      32.925      30.461      27.722      24.943      22.273      19.826    
  17.669      15.806      14.202      12.813      11.595      10.523      9.5841      8.7766      8.1095      7.5946    
  7.2439      7.0662      7.0662      7.2439      7.5946      8.1095      8.7766      9.5841      10.523      11.595    
  12.813      14.202      15.806      17.669      19.826      22.273      24.942      27.722      30.461      32.925    
  34.844      36.006      36.369      36.109      35.585      35.194      35.194      35.586      35.403      34.962    
  33.926      32.279      30.145      27.722      25.205      22.735      20.422      18.347      16.529      14.946    
  13.560      12.331      11.231      10.245      9.3704      8.6191      8.0078      7.5551      7.2765      7.1825    
  7.2765      7.5551      8.0077      8.6190      9.3704      10.245      11.231      12.331      13.560      14.946    
  16.529      18.347      20.422      22.735      25.205      27.722      30.145      32.279      33.926      34.962    
  35.403      35.418      35.269      35.188      35.269      35.418      33.346      32.419      31.021      29.219    
  27.143      24.943      22.735      20.626      18.699      16.984      15.472      14.130      12.926      11.830    
  10.823      9.9029      9.0828      8.3837      7.8305      7.4466      7.2498      7.2498      7.4466      7.8306    
  8.3838      9.0828      9.9028      10.823      11.830      12.926      14.130      15.472      16.984      18.699    
  20.626      22.735      24.943      27.143      29.219      31.021      32.419      33.346      33.841      34.030    
  34.072      34.072      34.031      33.841      30.377      29.224      27.748      26.032      24.175      22.273    
  20.422      18.699      17.140      15.744      14.489      13.345      12.285      11.288      10.350      9.4829    
  8.7116      8.0661      7.5773      7.2720      7.1681      7.2719      7.5773      8.0661      8.7117      9.4829    
  10.350      11.288      12.285      13.345      14.489      15.744      17.140      18.699      20.422      22.273    
  24.175      26.032      27.748      29.224      30.377      31.176      31.655      31.891      31.959      31.891    
  31.655      31.176      26.998      25.836      24.470      22.962      21.387      19.826      18.347      16.984    
  15.744      14.611      13.562      12.570      11.614      10.688      9.8020      8.9810      8.2588      7.6729    
  7.2589      7.0443      7.0443      7.2588      7.6729      8.2587      8.9810      9.8020      10.688      11.614    
  12.570      13.562      14.611      15.744      16.984      18.347      19.826      21.387      22.963      24.469    
  25.836      26.999      27.908      28.550      28.945      29.128      29.128      28.945      28.550      27.908    
  23.612      22.567      21.392      20.142      18.883      17.669      16.529      15.472      14.489      13.562    
  12.667      11.783      10.899      10.025      9.1821      8.4063      7.7392      7.2239      6.8977      6.7860    
  6.8977      7.2239      7.7392      8.4062      9.1821      10.025      10.899      11.782      12.667      13.562    
  14.489      15.472      16.529      17.669      18.883      20.141      21.392      22.567      23.612      24.485    
  25.162      25.634      25.908      25.997      25.908      25.633      25.162      24.485      20.446      19.571    
  18.627      17.662      16.714      15.806      14.946      14.130      13.345      12.570      11.783      10.971    
  10.139      9.3065      8.5062      7.7819      7.1816      6.7509      6.5258      6.5257      6.7509      7.1816    
  7.7819      8.5062      9.3065      10.139      10.971      11.782      12.570      13.345      14.130      14.946    
  15.806      16.714      17.662      18.627      19.570      20.446      21.210      21.835      22.305      22.617    
  22.772      22.772      22.617      22.306      21.835      21.210      17.612      16.941      16.244      15.546    
  14.863      14.202      13.560      12.926      12.285      11.614      10.899      10.139      9.3486      8.5568    
  7.8056      7.1451      6.6265      6.2947      6.1805      6.2948      6.6265      7.1451      7.8056      8.5568    
  9.3486      10.139      10.899      11.614      12.285      12.926      13.560      14.202      14.863      15.546    
  16.244      16.941      17.612      18.227      18.757      19.180      19.485      19.669      19.730      19.669    
  19.485      19.180      18.757      18.227      15.182      14.714      14.237      13.760      13.287      12.813    
  12.331      11.830      11.288      10.688      10.025      9.3065      8.5568      7.8132      7.1242      6.5434    
  6.1219      5.9000      5.9000      6.1219      6.5434      7.1242      7.8132      8.5568      9.3065      10.025    
  10.688      11.288      11.830      12.331      12.813      13.287      13.760      14.237      14.714      15.182    
  15.624      16.024      16.363      16.627      16.808      16.899      16.899      16.808      16.627      16.363    
  16.024      15.624      13.150      12.857      12.558      12.250      11.932      11.595      11.231      10.823    
  10.350      9.8020      9.1821      8.5062      7.8056      7.1242      6.5142      6.0295      5.7169      5.6089    
  5.7169      6.0294      6.5142      7.1242      7.8056      8.5062      9.1821      9.8020      10.350      10.823    
  11.231      11.595      11.932      12.250      12.558      12.857      13.150      13.432      13.695      13.929    
  14.123      14.269      14.359      14.390      14.359      14.269      14.123      13.929      13.695      13.432    
  11.469      11.312      11.146      10.964      10.759      10.523      10.245      9.9029      9.4829      8.9810    
  8.4063      7.7819      7.1451      6.5434      6.0295      5.6533      5.4544      5.4544      5.6533      6.0294    
  6.5434      7.1451      7.7819      8.4062      8.9810      9.4829      9.9029      10.245      10.523      10.759    
  10.964      11.146      11.312      11.469      11.617      11.759      11.890      12.005      12.099      12.165    
  12.200      12.200      12.165      12.099      12.005      11.890      11.759      11.617      10.074      10.020    
  9.9520      9.8617      9.7420      9.5841      9.3704      9.0828      8.7116      8.2588      7.7392      7.1816    
  6.6265      6.1219      5.7169      5.4544      5.3634      5.4544      5.7169      6.1219      6.6265      7.1816    
  7.7392      8.2588      8.7117      9.0828      9.3704      9.5841      9.7420      9.8617      9.9519      10.020    
  10.074      10.121      10.164      10.206      10.247      10.285      10.316      10.336      10.343      10.336    
  10.316      10.285      10.247      10.206      10.164      10.121      8.9135      8.9354      8.9408      8.9219    
  8.8711      8.7766      8.6191      8.3837      8.0661      7.6729      7.2239      6.7509      6.2947      5.9000    
  5.6089      5.4544      5.4544      5.6089      5.9000      6.2947      6.7509      7.2239      7.6729      8.0661    
  8.3838      8.6190      8.7767      8.8711      8.9219      8.9409      8.9354      8.9134      8.8827      8.8504    
  8.8217      8.7998      8.7854      8.7777      8.7744      8.7735      8.7735      8.7745      8.7777      8.7855    
  8.7998      8.8217      8.8503      8.8827      7.9464      8.0283      8.0940      8.1357      8.1461      8.1095    
  8.0078      7.8305      7.5773      7.2589      6.8977      6.5258      6.1805      5.9000      5.7169      5.6533    
  5.7169      5.9000      6.1805      6.5258      6.8977      7.2588      7.5773      7.8306      8.0078      8.1095    
  8.1461      8.1357      8.0939      8.0283      7.9465      7.8564      7.7659      7.6816      7.6084      7.5492    
  7.5051      7.4752      7.4582      7.4527      7.4581      7.4751      7.5050      7.5492      7.6084      7.6815    
  7.7660      7.8565      7.1497      7.2833      7.4031      7.5025      7.5720      7.5946      7.5551      7.4466    
  7.2720      7.0443      6.7860      6.5257      6.2948      6.1219      6.0294      6.0294      6.1219      6.2947    
  6.5258      6.7860      7.0443      7.2719      7.4466      7.5551      7.5946      7.5720      7.5025      7.4032    
  7.2833      7.1496      7.0100      6.8720      6.7426      6.6274      6.5304      6.4536      6.3974      6.3608    
  6.3430      6.3430      6.3609      6.3974      6.4537      6.5305      6.6274      6.7426      6.8719      7.0099    
  6.5096      6.6929      6.8667      7.0245      7.1559      7.2439      7.2765      7.2498      7.1681      7.0443    
  6.8977      6.7509      6.6265      6.5434      6.5142      6.5434      6.6265      6.7509      6.8977      7.0443    
  7.1681      7.2497      7.2766      7.2439      7.1559      7.0245      6.8666      6.6929      6.5097      6.3242    
  6.1437      5.9748      5.8232      5.6931      5.5869      5.5054      5.4484      5.4148      5.4037      5.4148    
  5.4484      5.5054      5.5868      5.6931      5.8232      5.9748      6.1437      6.3242      6.0194      6.2536    
  6.4839      6.7045      6.9036      7.0662      7.1825      7.2498      7.2719      7.2588      7.2239      7.1816    
  7.1451      7.1242      7.1242      7.1451      7.1816      7.2239      7.2588      7.2719      7.2497      7.1825    
  7.0662      6.9036      6.7045      6.4840      6.2536      6.0193      5.7878      5.5655      5.3589      5.1730    
  5.0119      4.8779      4.7721      4.6941      4.6431      4.6179      4.6179      4.6430      4.6941      4.7721    
  4.8779      5.0119      5.1730      5.3589      5.5655      5.7878      5.6734      5.9627      6.2549      6.5440    
  6.8191      7.0662      7.2765      7.4466      7.5773      7.6729      7.7392      7.7819      7.8056      7.8132    
  7.8056      7.7819      7.7392      7.6729      7.5773      7.4466      7.2766      7.0662      6.8191      6.5440    
  6.2548      5.9627      5.6734      5.3930      5.1273      4.8818      4.6612      4.4691      4.3075      4.1771    
  4.0776      4.0080      3.9668      3.9532      3.9668      4.0080      4.0776      4.1771      4.3075      4.4691    
  4.6612      4.8818      5.1273      5.3930      5.4680      5.8179      6.1784      6.5440      6.9036      7.2439    
  7.5551      7.8306      8.0661      8.2587      8.4062      8.5062      8.5568      8.5568      8.5062      8.4062    
  8.2588      8.0661      7.8306      7.5551      7.2439      6.9036      6.5440      6.1785      5.8179      5.4680    
  5.1339      4.8209      4.5338      4.2766      4.0519      3.8615      3.7056      3.5835      3.4939      3.4353    
  3.4064      3.4064      3.4353      3.4939      3.5835      3.7056      3.8615      4.0520      4.2766      4.5338    
  4.8208      5.1339      5.3998      5.8179      6.2549      6.7045      7.1559      7.5946      8.0077      8.3838    
  8.7117      8.9810      9.1821      9.3065      9.3486      9.3065      9.1821      8.9810      8.7117      8.3838    
  8.0078      7.5946      7.1559      6.7045      6.2548      5.8179      5.3998      5.0057      4.6401      4.3071    
  4.0096      3.7498      3.5284      3.3452      3.1989      3.0879      3.0104      2.9646      2.9495      2.9646    
  3.0104      3.0879      3.1989      3.3452      3.5284      3.7498      4.0097      4.3070      4.6401      5.0057    
  5.4680      5.9627      6.4839      7.0245      7.5720      8.1095      8.6190      9.0828      9.4829      9.8020    
  10.025      10.139      10.139      10.025      9.8020      9.4829      9.0828      8.6190      8.1095      7.5720    
  7.0245      6.4840      5.9627      5.4680      5.0057      4.5803      4.1954      3.8529      3.5541      3.2987    
  3.0856      2.9131      2.7789      2.6807      2.6165      2.5848      2.5848      2.6165      2.6807      2.7789    
  2.9131      3.0856      3.2987      3.5541      3.8529      4.1954      4.5803      5.0057      5.6734      6.2536    
  6.8667      7.5025      8.1461      8.7766      9.3704      9.9028      10.350      10.688      10.899      10.971    
  10.899      10.688      10.350      9.9029      9.3704      8.7767      8.1461      7.5025      6.8666      6.2536    
  5.6734      5.1339      4.6401      4.1954      3.8013      3.4580      3.1643      2.9181      2.7167      2.5570    
  2.4363      2.3520      2.3022      2.2858      2.3022      2.3520      2.4363      2.5570      2.7167      2.9181    
  3.1643      3.4580      3.8013      4.1954      4.6401      5.1339      6.0194      6.6929      7.4031      8.1357    
  8.8711      9.5841      10.245      10.823      11.288      11.614      11.782      11.782      11.614      11.288    
  10.823      10.245      9.5841      8.8711      8.1357      7.4032      6.6929      6.0193      5.3930      4.8209    
  4.3071      3.8529      3.4580      3.1202      2.8361      2.6021      2.4142      2.2686      2.1622      2.0926    
  2.0583      2.0583      2.0926      2.1622      2.2686      2.4142      2.6021      2.8361      3.1202      3.4580    
  3.8529      4.3071      4.8208      5.3930      6.5096      7.2833      8.0940      8.9219      9.7419      10.523    
  11.231      11.830      12.285      12.570      12.667      12.570      12.285      11.830      11.231      10.523    
  9.7420      8.9219      8.0939      7.2833      6.5097      5.7878      5.1273      4.5338      4.0096      3.5541    
  3.1643      2.8361      2.5645      2.3443      2.1708      2.0399      1.9485      1.8946      1.8767      1.8946    
  1.9485      2.0399      2.1708      2.3443      2.5645      2.8361      3.1643      3.5541      4.0097      4.5338    
  5.1273      5.7877      7.1497      8.0283      8.9408      9.8617      10.759      11.595      12.331      12.926    
  13.345      13.562      13.562      13.345      12.926      12.331      11.595      10.759      9.8617      8.9409    
  8.0283      7.1496      6.3242      5.5655      4.8818      4.2766      3.7498      3.2987      2.9181      2.6021    
  2.3443      2.1387      1.9800      1.8644      1.7888      1.7514      1.7514      1.7888      1.8644      1.9800    
  2.1387      2.3443      2.6021      2.9181      3.2987      3.7498      4.2766      4.8818      5.5655      6.3242    
  7.9464      8.9354      9.9520      10.964      11.932      12.813      13.560      14.130      14.489      14.611    
  14.489      14.130      13.560      12.813      11.932      10.964      9.9519      8.9354      7.9465      7.0100    
  6.1437      5.3589      4.6612      4.0519      3.5284      3.0856      2.7167      2.4142      2.1708      1.9800    
  1.8367      1.7369      1.6779      1.6584      1.6779      1.7369      1.8367      1.9800      2.1708      2.4142    
  2.7167      3.0856      3.5284      4.0520      4.6613      5.3589      6.1438      7.0099      8.9135      10.020    
  11.146      12.250      13.287      14.202      14.946      15.472      15.744      15.744      15.472      14.946    
  14.202      13.287      12.250      11.146      10.020      8.9134      7.8564      6.8720      5.9748      5.1730    
  4.4691      3.8615      3.3452      2.9131      2.5570      2.2686      2.0399      1.8644      1.7369      1.6537    
  1.6127      1.6127      1.6537      1.7369      1.8644      2.0399      2.2686      2.5570      2.9131      3.3452    
  3.8615      4.4691      5.1730      5.9748      6.8719      7.8565      10.074      11.312      12.558      13.760    
  14.863      15.806      16.529      16.984      17.140      16.984      16.529      15.806      14.863      13.760    
  12.558      11.312      10.074      8.8827      7.7659      6.7426      5.8232      5.0119      4.3075      3.7056    
  3.1989      2.7789      2.4363      2.1622      1.9485      1.7888      1.6779      1.6127      1.5911      1.6127    
  1.6779      1.7888      1.9485      2.1622      2.4363      2.7789      3.1989      3.7056      4.3075      5.0119    
  5.8232      6.7426      7.7660      8.8827      11.469      12.857      14.237      15.546      16.714      17.669    
  18.347      18.699      18.699      18.347      17.669      16.714      15.546      14.237      12.857      11.469    
  10.121      8.8504      7.6816      6.6274      5.6931      4.8779      4.1771      3.5835      3.0879      2.6807    
  2.3520      2.0926      1.8946      1.7514      1.6584      1.6127      1.6127      1.6584      1.7514      1.8946    
  2.0926      2.3520      2.6807      3.0879      3.5835      4.1771      4.8779      5.6931      6.6274      7.6816    
  8.8503      10.121      13.150      14.714      16.244      17.662      18.883      19.826      20.422      20.626    
  20.422      19.826      18.883      17.662      16.244      14.714      13.150      11.617      10.164      8.8217    
  7.6084      6.5304      5.5869      4.7721      4.0776      3.4939      3.0104      2.6165      2.3022      2.0583    
  1.8767      1.7514      1.6779      1.6537      1.6779      1.7514      1.8767      2.0583      2.3022      2.6165    
  3.0104      3.4939      4.0776      4.7721      5.5869      6.5305      7.6084      8.8217      10.164      11.617    
  15.182      16.941      18.627      20.142      21.387      22.273      22.735      22.735      22.273      21.387    
  20.141      18.627      16.941      15.182      13.432      11.759      10.206      8.7998      7.5492      6.4536    
  5.5054      4.6941      4.0080      3.4353      2.9646      2.5848      2.2858      2.0583      1.8946      1.7888    
  1.7369      1.7369      1.7888      1.8946      2.0583      2.2858      2.5848      2.9646      3.4353      4.0079    
  4.6941      5.5054      6.4537      7.5492      8.7998      10.206      11.759      13.432      17.612      19.571    
  21.392      22.962      24.175      24.942      25.205      24.943      24.175      22.963      21.392      19.570    
  17.612      15.624      13.695      11.890      10.247      8.7854      7.5051      6.3974      5.4484      4.6431    
  3.9668      3.4064      2.9495      2.5848      2.3022      2.0926      1.9485      1.8644      1.8367      1.8644    
  1.9485      2.0926      2.3022      2.5848      2.9495      3.4064      3.9668      4.6431      5.4484      6.3974    
  7.5050      8.7854      10.247      11.890      13.695      15.624      20.446      22.567      24.470      26.032    
  27.143      27.722      27.722      27.143      26.032      24.469      22.567      20.446      18.227      16.024    
  13.929      12.005      10.285      8.7777      7.4752      6.3608      5.4148      4.6179      3.9532      3.4064    
  2.9646      2.6165      2.3520      2.1622      2.0399      1.9800      1.9800      2.0399      2.1622      2.3520    
  2.6165      2.9646      3.4064      3.9532      4.6179      5.4148      6.3608      7.4752      8.7777      10.285    
  12.005      13.929      16.024      18.227      23.612      25.836      27.748      29.219      30.145      30.461    
  30.145      29.219      27.748      25.836      23.612      21.210      18.757      16.363      14.123      12.099    
  10.316      8.7744      7.4582      6.3430      5.4037      4.6179      3.9668      3.4353      3.0104      2.6807    
  2.4363      2.2686      2.1708      2.1387      2.1708      2.2686      2.4363      2.6807      3.0104      3.4353    
  3.9668      4.6179      5.4037      6.3430      7.4581      8.7745      10.316      12.099      14.123      16.363    
  18.757      21.210      26.998      29.224      31.021      32.279      32.925      32.925      32.279      31.021    
  29.224      26.999      24.485      21.835      19.180      16.627      14.269      12.165      10.336      8.7735    
  7.4527      6.3430      5.4148      4.6430      4.0080      3.4939      3.0879      2.7789      2.5570      2.4142    
  2.3443      2.3443      2.4142      2.5570      2.7789      3.0879      3.4939      4.0079      4.6431      5.4148    
  6.3430      7.4526      8.7735      10.336      12.165      14.269      16.627      19.180      21.835      24.485    
  30.377      32.418      33.926      34.843      35.151      34.844      33.926      32.419      30.377      27.908    
  25.162      22.305      19.485      16.808      14.359      12.200      10.343      8.7735      7.4581      6.3609    
  5.4484      4.6941      4.0776      3.5835      3.1989      2.9131      2.7167      2.6021      2.5645      2.6021    
  2.7167      2.9131      3.1989      3.5835      4.0776      4.6941      5.4484      6.3608      7.4581      8.7735    
  10.343      12.200      14.359      16.808      19.485      22.306      25.162      27.908      33.346      34.962    
  36.006      36.511      36.511      36.006      34.962      33.346      31.176      28.550      25.634      22.617    
  19.669      16.899      14.390      12.200      10.336      8.7745      7.4751      6.3974      5.5054      4.7721    
  4.1771      3.7056      3.3452      3.0856      2.9181      2.8361      2.8361      2.9181      3.0856      3.3452    
  3.7056      4.1771      4.7721      5.5054      6.3974      7.4752      8.7745      10.336      12.200      14.390    
  16.899      19.669      22.617      25.633      28.550      31.176      35.403      36.369      36.859      37.004    
  36.859      36.369      35.403      33.841      31.655      28.945      25.908      22.772      19.730      16.899    
  14.359      12.165      10.316      8.7777      7.5050      6.4537      5.5868      4.8779      4.3075      3.8615    
  3.5284      3.2987      3.1643      3.1202      3.1643      3.2987      3.5284      3.8615      4.3075      4.8779    
  5.5869      6.4537      7.5050      8.7777      10.316      12.165      14.359      16.899      19.730      22.772    
  25.908      28.945      31.655      33.841      36.109      36.323      36.336      36.336      36.323      36.109    
  35.418      34.030      31.891      29.128      25.997      22.772      19.669      16.808      14.269      12.099    
  10.285      8.7855      7.5492      6.5305      5.6931      5.0119      4.4691      4.0520      3.7498      3.5541    
  3.4580      3.4580      3.5541      3.7498      4.0520      4.4691      5.0119      5.6931      6.5305      7.5492    
  8.7854      10.285      12.099      14.269      16.808      19.669      22.772      25.997      29.128      31.891    
  34.030      35.418      35.311      34.882      34.688      34.882      35.311      35.585      35.269      34.072    
  31.959      29.128      25.908      22.617      19.485      16.627      14.123      12.005      10.247      8.7998    
  7.6084      6.6274      5.8232      5.1730      4.6612      4.2766      4.0097      3.8529      3.8013      3.8529    
  4.0097      4.2766      4.6613      5.1730      5.8232      6.6274      7.6084      8.7998      10.247      12.005    
  14.123      16.627      19.485      22.617      25.908      29.128      31.959      34.072      35.269      35.585    
  33.299      32.561      32.561      33.299      34.379      35.194      35.188      34.072      31.891      28.945    
  25.633      22.306      19.180      16.363      13.929      11.890      10.206      8.8217      7.6815      6.7426    
  5.9748      5.3589      4.8818      4.5338      4.3070      4.1954      4.1954      4.3071      4.5338      4.8818    
  5.3589      5.9748      6.7426      7.6816      8.8217      10.206      11.890      13.929      16.363      19.180    
  22.306      25.633      28.945      31.891      34.072      35.188      35.194      34.379      30.801      30.220    
  30.801      32.283      34.005      35.194      35.269      34.031      31.655      28.550      25.162      21.835    
  18.757      16.024      13.695      11.759      10.164      8.8503      7.7660      6.8719      6.1437      5.5655    
  5.1273      4.8208      4.6401      4.5803      4.6401      4.8208      5.1273      5.5655      6.1438      6.8719    
  7.7660      8.8503      10.164      11.759      13.695      16.024      18.757      21.835      25.162      28.550    
  31.655      34.030      35.269      35.194      34.005      32.283      28.761      28.761      30.121      32.283    
  34.379      35.586      35.418      33.841      31.176      27.908      24.485      21.210      18.227      15.624    
  13.432      11.617      10.121      8.8827      7.8565      7.0099      6.3242      5.7878      5.3930      5.1339    
  5.0057      5.0057      5.1339      5.3930      5.7877      6.3242      7.0099      7.8565      8.8827      10.121    
  11.617      13.432      15.624      18.227      21.210      24.485      27.908      31.176      33.841      35.418    
  35.585      34.379      32.283      30.121      28.761      30.220      32.561      34.883      36.323      36.369    
  34.962      32.419      29.224      25.836      22.567      19.571      16.941      14.714      12.857      11.312    
  10.020      8.9354      8.0283      7.2833      6.6929      6.2536      5.9627      5.8179      5.8179      5.9627    
  6.2536      6.6929      7.2833      8.0283      8.9354      10.020      11.312      12.857      14.714      16.941    
  19.571      22.567      25.836      29.224      32.418      34.962      36.369      36.324      34.882      32.561    
  30.220      28.761      30.220      32.116      34.429      36.270      36.954      36.210      34.184      31.289    
  27.999      24.690      21.581      18.785      16.375      14.346      12.649      11.223      10.018      8.9984    
  8.1444      7.4476      6.9065      6.5203      6.2892      6.2121      6.2892      6.5203      6.9065      7.4476    
  8.1444      8.9984      10.018      11.223      12.649      14.346      16.375      18.785      21.581      24.690    
  27.999      31.289      34.184      36.210      36.954      36.270      34.429      32.116      30.220      29.490    
  32.561      34.429      36.213      37.185      36.916      35.375      32.848      29.763      26.520      23.386    
  20.502      17.962      15.796      13.970      12.429      11.117      9.9946      9.0380      8.2378      7.5931    
  7.1062      6.7799      6.6164      6.6164      6.7799      7.1062      7.5930      8.2378      9.0380      9.9946    
  11.117      12.429      13.970      15.796      17.962      20.502      23.386      26.520      29.763      32.848    
  35.375      36.916      37.185      36.213      34.429      32.561      31.380      31.381      34.883      36.270    