unknown system                          
   1.00000000000000     
     0.000000    2.189780    2.189780
     2.189780    0.000000    2.189780
     2.189780    2.189780    0.000000
   Si   C 
     1     1
Direct
  0.250000  0.250000  0.250000
  0.000000  0.000000  0.000000
 
   48   48   48
 0.27977970467E+02 0.28761421694E+02 0.30800523159E+02 0.33298835703E+02 0.35311411583E+02
 0.36109417060E+02 0.35402900299E+02 0.33345898740E+02 0.30376985773E+02 0.26998353739E+02
 0.23611896180E+02 0.20445908795E+02 0.17612197366E+02 0.15181799067E+02 0.13150383025E+02
 0.11468691680E+02 0.10074357406E+02 0.89134618099E+01 0.79463855203E+01 0.71496588418E+01
 0.65096135346E+01 0.60193758345E+01 0.56733893267E+01 0.54680127152E+01 0.53997685964E+01
 0.54680079696E+01 0.56733886665E+01 0.60193837696E+01 0.65096323139E+01 0.71496701254E+01
 0.79463844732E+01 0.89134547487E+01 0.10074351837E+02 0.11468693515E+02 0.13150384314E+02
 0.15181796338E+02 0.17612205836E+02 0.20445916308E+02 0.23611893379E+02 0.26998356039E+02
 0.30376983999E+02 0.33345899501E+02 0.35402900500E+02 0.36109415684E+02 0.35311410615E+02
 0.33298835028E+02 0.30800523143E+02 0.28761422018E+02 0.28761421694E+02 0.30219918842E+02
 0.32561176008E+02 0.34882500861E+02 0.36323412739E+02 0.36368821885E+02 0.34962046738E+02
 0.32418522823E+02 0.29224179029E+02 0.25836456561E+02 0.22567223750E+02 0.19570702809E+02
 0.16941208410E+02 0.14714483895E+02 0.12857373478E+02 0.11312494851E+02 0.10020237854E+02
 0.89354269580E+01 0.80282519183E+01 0.72833039746E+01 0.66928937766E+01 0.62536015982E+01
 0.59626593801E+01 0.58179358976E+01 0.58179305259E+01 0.59626738177E+01 0.62535877297E+01
 0.66928770177E+01 0.72832703721E+01 0.80282622872E+01 0.89354313483E+01 0.10020258952E+02
 0.11312474701E+02 0.12857380891E+02 0.14714477182E+02 0.16941217390E+02 0.19570677782E+02
 0.22567251031E+02 0.25836435368E+02 0.29224205710E+02 0.32418460789E+02 0.34962101138E+02
 0.36368718199E+02 0.36323478461E+02 0.34882400604E+02 0.32561055486E+02 0.30220042512E+02
 0.28761453137E+02 0.30800523159E+02 0.32561176008E+02 0.34687827086E+02 0.36336252677E+02
 0.36859327729E+02 0.36006199656E+02 0.33926249907E+02 0.31021484825E+02 0.27748296114E+02
 0.24469694303E+02 0.21391817194E+02 0.18626737230E+02 0.16244315750E+02 0.14237166970E+02
 0.12557617231E+02 0.11145844576E+02 0.99520319130E+01 0.89408333182E+01 0.80940013990E+01
 0.74031079364E+01 0.68667125307E+01 0.64839094653E+01 0.62548725984E+01 0.61784347161E+01
 0.62548676061E+01 0.64839099797E+01 0.68667401756E+01 0.74031499924E+01 0.80940075224E+01
 0.89408079937E+01 0.99520151634E+01 0.11145858585E+02 0.12557622342E+02 0.14237160137E+02
 0.16244321509E+02 0.18626750270E+02 0.21391808947E+02 0.24469699536E+02 0.27748243075E+02
 0.31021478459E+02 0.33926198373E+02 0.36006237851E+02 0.36859222075E+02 0.36336265276E+02
 0.34687834825E+02 0.32561144282E+02 0.30800619191E+02 0.30120705309E+02 0.33298835703E+02
 0.34882500861E+02 0.36336252677E+02 0.37004346500E+02 0.36510760397E+02 0.34843530645E+02
 0.32279031677E+02 0.29218761195E+02 0.26031698004E+02 0.22962251243E+02 0.20141626979E+02
 0.17661861735E+02 0.15546015956E+02 0.13760262672E+02 0.12250455190E+02 0.10963837726E+02
 0.98616824656E+01 0.89218701275E+01 0.81357429477E+01 0.75025108522E+01 0.70245402552E+01
 0.67044630843E+01 0.65440351735E+01 0.65440395756E+01 0.67044543702E+01 0.70245165504E+01
 0.75024567480E+01 0.81357206285E+01 0.89219131569E+01 0.98617176292E+01 0.10963801754E+02
 0.12250450298E+02 0.13760277840E+02 0.15546011881E+02 0.17661842638E+02 0.20141641154E+02
 0.22962240526E+02 0.26031723889E+02 0.29218775099E+02 0.32279074050E+02 0.34843485649E+02
 0.36510799494E+02 0.37004274655E+02 0.36336235961E+02 0.34882387925E+02 0.33298894386E+02
 0.32282918286E+02 0.32282827723E+02 0.35311411583E+02 0.36323412739E+02 0.36859327729E+02
 0.36510760397E+02 0.35150607331E+02 0.32924870125E+02 0.30144918143E+02 0.27143469742E+02
 0.24175380877E+02 0.21386698999E+02 0.18882866563E+02 0.16713618050E+02 0.14863265508E+02
 0.13286546863E+02 0.11932016012E+02 0.10758814357E+02 0.97419970211E+01 0.88711482517E+01
 0.81460954645E+01 0.75719897714E+01 0.71558561236E+01 0.69035799624E+01 0.68191007322E+01
 0.69035884992E+01 0.71558874136E+01 0.75720353701E+01 0.81461230249E+01 0.88711051619E+01
 0.97419385015E+01 0.10758867160E+02 0.11932028688E+02 0.13286516583E+02 0.14863281620E+02
 0.16713634937E+02 0.18882843694E+02 0.21386711547E+02 0.24175338646E+02 0.27143463443E+02
 0.30144872441E+02 0.32924901404E+02 0.35150622516E+02 0.36510759147E+02 0.36859454135E+02
 0.36323407976E+02 0.35311436839E+02 0.34378982060E+02 0.34005491115E+02 0.34378995712E+02
 0.36109417060E+02 0.36368821885E+02 0.36006199656E+02 0.34843530645E+02 0.32924870125E+02
 0.30460956642E+02 0.27721779772E+02 0.24942518517E+02 0.22273341663E+02 0.19825557796E+02
 0.17668773964E+02 0.15805538763E+02 0.14202447090E+02 0.12812516781E+02 0.11595410756E+02
 0.10523457123E+02 0.95840529297E+01 0.87766153840E+01 0.81094918422E+01 0.75946354628E+01
 0.72439193469E+01 0.70662076448E+01 0.70661880292E+01 0.72439046045E+01 0.75945933848E+01
 0.81094954475E+01 0.87766495502E+01 0.95841287701E+01 0.10523384811E+02 0.11595389580E+02
 0.12812570711E+02 0.14202424925E+02 0.15805513330E+02 0.17668808296E+02 0.19825526948E+02
 0.22273391594E+02 0.24942492874E+02 0.27721832076E+02 0.30460943797E+02 0.32924900806E+02
 0.34843553867E+02 0.36006066247E+02 0.36368771504E+02 0.36109350271E+02 0.35585472314E+02
 0.35193876080E+02 0.35193907467E+02 0.35585538644E+02 0.35402900299E+02 0.34962046738E+02
 0.33926249907E+02 0.32279031677E+02 0.30144918143E+02 0.27721779772E+02 0.25205186916E+02
 0.22734634820E+02 0.20421739210E+02 0.18346946443E+02 0.16528824994E+02 0.14946203014E+02
 0.13559718302E+02 0.12331211846E+02 0.11231369691E+02 0.10244835628E+02 0.93704320965E+01
 0.86190697995E+01 0.80077760360E+01 0.75550935716E+01 0.72765196007E+01 0.71825233337E+01
 0.72765254558E+01 0.75550960309E+01 0.80077462765E+01 0.86190246189E+01 0.93703944944E+01
 0.10244902031E+02 0.11231393731E+02 0.12331136651E+02 0.13559765469E+02 0.14946228009E+02
 0.16528771147E+02 0.18346990084E+02 0.20421669020E+02 0.22734667354E+02 0.25205118789E+02
 0.27721807169E+02 0.30144883318E+02 0.32278959057E+02 0.33926384742E+02 0.34962031765E+02
 0.35402906911E+02 0.35418238497E+02 0.35269029989E+02 0.35187857293E+02 0.35268798884E+02
 0.35418186981E+02 0.33345898740E+02 0.32418522823E+02 0.31021484825E+02 0.29218761195E+02
 0.27143469742E+02 0.24942518517E+02 0.22734634820E+02 0.20625720544E+02 0.18699257410E+02
 0.16984420397E+02 0.15471653608E+02 0.14130337220E+02 0.12926350352E+02 0.11829685435E+02
 0.10822624005E+02 0.99028888485E+01 0.90828473637E+01 0.83837387542E+01 0.78305446802E+01
 0.74465601733E+01 0.72497674098E+01 0.72497637659E+01 0.74465971872E+01 0.78305782817E+01
 0.83837783185E+01 0.90828301346E+01 0.99028391997E+01 0.10822605872E+02 0.11829773388E+02
 0.12926273732E+02 0.14130343129E+02 0.15471696369E+02 0.16984372209E+02 0.18699318175E+02
 0.20625693412E+02 0.22734668463E+02 0.24942526393E+02 0.27143432523E+02 0.29218924932E+02
 0.31021310734E+02 0.32418562162E+02 0.33345888424E+02 0.33840834645E+02 0.34030353216E+02
 0.34071747018E+02 0.34071787901E+02 0.34030522304E+02 0.33840904967E+02 0.30376985773E+02
 0.29224179029E+02 0.27748296114E+02 0.26031698004E+02 0.24175380877E+02 0.22273341663E+02
 0.20421739210E+02 0.18699257410E+02 0.17140121546E+02 0.15743779392E+02 0.14488603428E+02
 0.13345430427E+02 0.12285038816E+02 0.11287686081E+02 0.10349571459E+02 0.94829086423E+01
 0.87116460947E+01 0.80660712764E+01 0.75772817818E+01 0.72719638445E+01 0.71680741417E+01
 0.72719473397E+01 0.75772693112E+01 0.80660857476E+01 0.87116926406E+01 0.94829475447E+01
 0.10349542140E+02 0.11287636158E+02 0.12285117443E+02 0.13345412643E+02 0.14488564504E+02
 0.15743839942E+02 0.17140034267E+02 0.18699296237E+02 0.20421699291E+02 0.22273313816E+02
 0.24175426172E+02 0.26031505887E+02 0.27748453888E+02 0.29224109521E+02 0.30376914281E+02
 0.31176229452E+02 0.31655371877E+02 0.31890578998E+02 0.31958614582E+02 0.31890511156E+02
 0.31655186483E+02 0.31176125438E+02 0.26998353739E+02 0.25836456561E+02 0.24469694303E+02
 0.22962251243E+02 0.21386698999E+02 0.19825557796E+02 0.18346946443E+02 0.16984420397E+02
 0.15743779392E+02 0.14610749779E+02 0.13562094549E+02 0.12570183442E+02 0.11614152832E+02
 0.10687794824E+02 0.98019672865E+01 0.89809969834E+01 0.82588027015E+01 0.76728718118E+01
 0.72588693896E+01 0.70442741600E+01 0.70443009940E+01 0.72588100068E+01 0.76728574925E+01
 0.82587297356E+01 0.89810432337E+01 0.98019772406E+01 0.10687826795E+02 0.11614046816E+02
 0.12570280587E+02 0.13562053575E+02 0.14610758476E+02 0.15743809922E+02 0.16984425944E+02
 0.18346916487E+02 0.19825657092E+02 0.21386551198E+02 0.22962518722E+02 0.24469468858E+02
 0.25836485713E+02 0.26998536723E+02 0.27907840452E+02 0.28550153551E+02 0.28944859857E+02
 0.29128406532E+02 0.29128404835E+02 0.28944977489E+02 0.28550320968E+02 0.27907938757E+02
 0.23611896180E+02 0.22567223750E+02 0.21391817194E+02 0.20141626979E+02 0.18882866563E+02
 0.17668773964E+02 0.16528824994E+02 0.15471653608E+02 0.14488603428E+02 0.13562094549E+02
 0.12667322671E+02 0.11782550757E+02 0.10899003780E+02 0.10024573042E+02 0.91820578483E+01
 0.84062628804E+01 0.77391683968E+01 0.72238715302E+01 0.68976930682E+01 0.67859744967E+01
 0.68977056922E+01 0.72238771860E+01 0.77391575486E+01 0.84062042175E+01 0.91820567837E+01
 0.10024592788E+02 0.10899043560E+02 0.11782462075E+02 0.12667406537E+02 0.13562045892E+02
 0.14488601095E+02 0.15471638197E+02 0.16528850192E+02 0.17668675619E+02 0.18882983932E+02
 0.20141432672E+02 0.21391864659E+02 0.22567453313E+02 0.23611540790E+02 0.24485300901E+02
 0.25161975085E+02 0.25633628110E+02 0.25907784586E+02 0.25997169419E+02 0.25907773501E+02
 0.25633473676E+02 0.25161767547E+02 0.24485243483E+02 0.20445908795E+02 0.19570702809E+02
 0.18626737230E+02 0.17661861735E+02 0.16713618050E+02 0.15805538763E+02 0.14946203014E+02
 0.14130337220E+02 0.13345430427E+02 0.12570183442E+02 0.11782550757E+02 0.10970850628E+02
 0.10139076030E+02 0.93064722455E+01 0.85062469865E+01 0.77818764190E+01 0.71815598221E+01
 0.67509095746E+01 0.65257504689E+01 0.65257463332E+01 0.67509449671E+01 0.71815835222E+01
 0.77819000356E+01 0.85062113601E+01 0.93064606697E+01 0.10139085208E+02 0.10970876743E+02
 0.11782471750E+02 0.12570273752E+02 0.13345398932E+02 0.14130368525E+02 0.14946190803E+02
 0.15805585127E+02 0.16713582586E+02 0.17661908354E+02 0.18626872258E+02 0.19570356481E+02
 0.20446159415E+02 0.21210211058E+02 0.21834576161E+02 0.22305320496E+02 0.22617445126E+02
 0.22772195030E+02 0.22772232391E+02 0.22617468969E+02 0.22305550940E+02 0.21834798586E+02
 0.21210024244E+02 0.17612197366E+02 0.16941208410E+02 0.16244315750E+02 0.15546015956E+02
 0.14863265508E+02 0.14202447090E+02 0.13559718302E+02 0.12926350352E+02 0.12285038816E+02
 0.11614152832E+02 0.10899003780E+02 0.10139076030E+02 0.93486001060E+01 0.85568153971E+01
 0.78056034474E+01 0.71450530587E+01 0.66264718199E+01 0.62947495592E+01 0.61805254962E+01
 0.62947650653E+01 0.66265029120E+01 0.71450837005E+01 0.78056294934E+01 0.85567975167E+01
 0.93486000414E+01 0.10139098393E+02 0.10899018744E+02 0.11614070497E+02 0.12285112295E+02
 0.12926272351E+02 0.13559778190E+02 0.14202384837E+02 0.14863296658E+02 0.15545989010E+02
 0.16244185173E+02 0.16941430143E+02 0.17612187829E+02 0.18226743236E+02 0.18756580226E+02
 0.19179956657E+02 0.19485400137E+02 0.19669103991E+02 0.19730298391E+02 0.19669065327E+02
 0.19485311269E+02 0.19179672725E+02 0.18756523514E+02 0.18227052603E+02 0.15181799067E+02
 0.14714483895E+02 0.14237166970E+02 0.13760262672E+02 0.13286546863E+02 0.12812516781E+02
 0.12331211846E+02 0.11829685435E+02 0.11287686081E+02 0.10687794824E+02 0.10024573042E+02
 0.93064722455E+01 0.85568153971E+01 0.78132055982E+01 0.71241704737E+01 0.65433735730E+01
 0.61219006018E+01 0.59000438286E+01 0.59000293972E+01 0.61218963501E+01 0.65433792794E+01
 0.71242059442E+01 0.78132090182E+01 0.85567998734E+01 0.93064588873E+01 0.10024620122E+02
 0.10687785808E+02 0.11287660958E+02 0.11829756840E+02 0.12331138702E+02 0.12812598848E+02
 0.13286513494E+02 0.13760293912E+02 0.14237277149E+02 0.14714340629E+02 0.15181745628E+02
 0.15624193241E+02 0.16023686280E+02 0.16362693039E+02 0.16627253282E+02 0.16807699405E+02
 0.16898896355E+02 0.16898893554E+02 0.16807785905E+02 0.16627414655E+02 0.16362911245E+02
 0.16023571209E+02 0.15623997434E+02 0.13150383025E+02 0.12857373478E+02 0.12557617231E+02
 0.12250455190E+02 0.11932016012E+02 0.11595410756E+02 0.11231369691E+02 0.10822624005E+02
 0.10349571459E+02 0.98019672865E+01 0.91820578483E+01 0.85062469865E+01 0.78056034474E+01
 0.71241704737E+01 0.65142013880E+01 0.60294541609E+01 0.57169424382E+01 0.56089397956E+01
 0.57169216738E+01 0.60294327989E+01 0.65141970237E+01 0.71241973927E+01 0.78056123531E+01
 0.85062220521E+01 0.91820546748E+01 0.98020045436E+01 0.10349518886E+02 0.10822621314E+02
 0.11231401187E+02 0.11595349434E+02 0.11932049102E+02 0.12250422028E+02 0.12557536128E+02
 0.12857464964E+02 0.13150459152E+02 0.13432277417E+02 0.13695154236E+02 0.13929000900E+02
 0.14123467458E+02 0.14269197319E+02 0.14359404427E+02 0.14389921169E+02 0.14359370669E+02
 0.14269062408E+02 0.14123315805E+02 0.13928927985E+02 0.13695268780E+02 0.13432417948E+02
 0.11468691680E+02 0.11312494851E+02 0.11145844576E+02 0.10963837726E+02 0.10758814357E+02
 0.10523457123E+02 0.10244835628E+02 0.99028888485E+01 0.94829086423E+01 0.89809969834E+01
 0.84062628804E+01 0.77818764190E+01 0.71450530587E+01 0.65433735730E+01 0.60294541609E+01
 0.56533088129E+01 0.54543811839E+01 0.54543672213E+01 0.56532925202E+01 0.60294127363E+01
 0.65433706607E+01 0.71450593991E+01 0.77818802901E+01 0.84062261272E+01 0.89810374045E+01
 0.94829364806E+01 0.99028562531E+01 0.10244858556E+02 0.10523456680E+02 0.10758825054E+02
 0.10963843947E+02 0.11145930660E+02 0.11312423819E+02 0.11468615239E+02 0.11617486541E+02
 0.11758807517E+02 0.11889713410E+02 0.12005090581E+02 0.12098929156E+02 0.12165398761E+02
 0.12199926771E+02 0.12199938420E+02 0.12165486572E+02 0.12099062994E+02 0.12005167970E+02
 0.11889744355E+02 0.11758707779E+02 0.11617382195E+02 0.10074357406E+02 0.10020237854E+02
 0.99520319130E+01 0.98616824656E+01 0.97419970211E+01 0.95840529297E+01 0.93704320965E+01
 0.90828473637E+01 0.87116460947E+01 0.82588027015E+01 0.77391683968E+01 0.71815598221E+01
 0.66264718199E+01 0.61219006018E+01 0.57169424382E+01 0.54543811839E+01 0.53633969952E+01
 0.54543598583E+01 0.57169111317E+01 0.61218805435E+01 0.66264833798E+01 0.71815639289E+01
 0.77391582877E+01 0.82587501676E+01 0.87116956343E+01 0.90828092471E+01 0.93704450564E+01
 0.95840597913E+01 0.97419592989E+01 0.98617066499E+01 0.99519251144E+01 0.10020318183E+02
 0.10074413719E+02 0.10120754698E+02 0.10163919897E+02 0.10206187860E+02 0.10247299616E+02
 0.10285021707E+02 0.10315862273E+02 0.10336162675E+02 0.10343226517E+02 0.10336107724E+02
 0.10315776487E+02 0.10284927265E+02 0.10247264675E+02 0.10206156933E+02 0.10164023581E+02
 0.10120812595E+02 0.89134618099E+01 0.89354269580E+01 0.89408333182E+01 0.89218701275E+01
 0.88711482517E+01 0.87766153840E+01 0.86190697995E+01 0.83837387542E+01 0.80660712764E+01
 0.76728718118E+01 0.72238715302E+01 0.67509095746E+01 0.62947495592E+01 0.59000438286E+01
 0.56089397956E+01 0.54543672213E+01 0.54543598583E+01 0.56089196800E+01 0.59000121383E+01
 0.62947253842E+01 0.67509224508E+01 0.72238818445E+01 0.76728530990E+01 0.80660784588E+01
 0.83837824646E+01 0.86190063515E+01 0.87766635346E+01 0.88711414621E+01 0.89218775470E+01
 0.89409187640E+01 0.89353714763E+01 0.89134074540E+01 0.88827393867E+01 0.88504390857E+01
 0.88217056478E+01 0.87997503764E+01 0.87853817503E+01 0.87776517850E+01 0.87743894785E+01
 0.87734854409E+01 0.87735072021E+01 0.87744584656E+01 0.87776986214E+01 0.87854628253E+01
 0.87997618948E+01 0.88217294747E+01 0.88503382556E+01 0.88826939626E+01 0.79463855203E+01
 0.80282519183E+01 0.80940013990E+01 0.81357429477E+01 0.81460954645E+01 0.81094918422E+01
 0.80077760360E+01 0.78305446802E+01 0.75772817818E+01 0.72588693896E+01 0.68976930682E+01
 0.65257504689E+01 0.61805254962E+01 0.59000293972E+01 0.57169216738E+01 0.56532925202E+01
 0.57169111317E+01 0.59000121383E+01 0.61804983547E+01 0.65257531018E+01 0.68977016997E+01
 0.72588412602E+01 0.75772514105E+01 0.78305766144E+01 0.80077708099E+01 0.81094781272E+01
 0.81460965843E+01 0.81357209710E+01 0.80939410059E+01 0.80282758739E+01 0.79464600848E+01
 0.78564019675E+01 0.77659106258E+01 0.76815558049E+01 0.76083846920E+01 0.75492401156E+01
 0.75050789815E+01 0.74751794350E+01 0.74581759140E+01 0.74526534594E+01 0.74581385568E+01
 0.74751446565E+01 0.75050292168E+01 0.75491831221E+01 0.76083700721E+01 0.76815493521E+01
 0.77659876740E+01 0.78564519315E+01 0.71496588418E+01 0.72833039746E+01 0.74031079364E+01
 0.75025108522E+01 0.75719897714E+01 0.75946354628E+01 0.75550935716E+01 0.74465601733E+01
 0.72719638445E+01 0.70442741600E+01 0.67859744967E+01 0.65257463332E+01 0.62947650653E+01
 0.61218963501E+01 0.60294327989E+01 0.60294127363E+01 0.61218805435E+01 0.62947253842E+01
 0.65257531018E+01 0.67859745753E+01 0.70442977964E+01 0.72719296370E+01 0.74465873413E+01
 0.75550908028E+01 0.75946113118E+01 0.75720335328E+01 0.75024857716E+01 0.74031955344E+01
 0.72832614045E+01 0.71496003639E+01 0.70099718023E+01 0.68719609503E+01 0.67425653484E+01
 0.66274126083E+01 0.65304352145E+01 0.64536271575E+01 0.63973544314E+01 0.63608399134E+01
 0.63429632732E+01 0.63429679692E+01 0.63608605961E+01 0.63973816750E+01 0.64536687186E+01
 0.65304818264E+01 0.66274150199E+01 0.67425732657E+01 0.68718804384E+01 0.70099444080E+01
 0.65096135346E+01 0.66928937766E+01 0.68667125307E+01 0.70245402552E+01 0.71558561236E+01
 0.72439193469E+01 0.72765196007E+01 0.72497674098E+01 0.71680741417E+01 0.70443009940E+01
 0.68977056922E+01 0.67509449671E+01 0.66265029120E+01 0.65433792794E+01 0.65141970237E+01
 0.65433706607E+01 0.66264833798E+01 0.67509224508E+01 0.68977016997E+01 0.70442977964E+01
 0.71680533735E+01 0.72497473800E+01 0.72765790755E+01 0.72438765738E+01 0.71558698552E+01
 0.70245249143E+01 0.68666463540E+01 0.66929165469E+01 0.65096724209E+01 0.63242272103E+01
 0.61436667598E+01 0.59748069046E+01 0.58232088259E+01 0.56931010980E+01 0.55868701138E+01
 0.55054338425E+01 0.54483734303E+01 0.54147836301E+01 0.54037010772E+01 0.54147882308E+01
 0.54483574562E+01 0.55054086403E+01 0.55868363535E+01 0.56930601843E+01 0.58232143889E+01
 0.59748001859E+01 0.61437458841E+01 0.63242496570E+01 0.60193758345E+01 0.62536015982E+01
 0.64839094653E+01 0.67044630843E+01 0.69035799624E+01 0.70662076448E+01 0.71825233337E+01
 0.72497637659E+01 0.72719473397E+01 0.72588100068E+01 0.72238771860E+01 0.71815835222E+01
 0.71450837005E+01 0.71242059442E+01 0.71241973927E+01 0.71450593991E+01 0.71815639289E+01
 0.72238818445E+01 0.72588412602E+01 0.72719296370E+01 0.72497473800E+01 0.71825473884E+01
 0.70661720348E+01 0.69036130100E+01 0.67044586449E+01 0.64839778282E+01 0.62535876986E+01
 0.60193083089E+01 0.57877828340E+01 0.55655396235E+01 0.53588681812E+01 0.51729728535E+01
 0.50118537554E+01 0.48778861593E+01 0.47720543402E+01 0.46940796167E+01 0.46430504104E+01
 0.46178702097E+01 0.46178668737E+01 0.46430404227E+01 0.46940975557E+01 0.47720686817E+01
 0.48779213555E+01 0.50118827104E+01 0.51729708153E+01 0.53588695479E+01 0.55654726648E+01
 0.57877622034E+01 0.56733893267E+01 0.59626593801E+01 0.62548725984E+01 0.65440351735E+01
 0.68191007322E+01 0.70661880292E+01 0.72765254558E+01 0.74465971872E+01 0.75772693112E+01
 0.76728574925E+01 0.77391575486E+01 0.77819000356E+01 0.78056294934E+01 0.78132090182E+01
 0.78056123531E+01 0.77818802901E+01 0.77391582877E+01 0.76728530990E+01 0.75772514105E+01
 0.74465873413E+01 0.72765790755E+01 0.70661720348E+01 0.68190932666E+01 0.65440394804E+01
 0.62547957560E+01 0.59626793220E+01 0.56734434034E+01 0.53930135998E+01 0.51272573931E+01
 0.48817889383E+01 0.46612334363E+01 0.44691189809E+01 0.43074868034E+01 0.41771257275E+01
 0.40776262516E+01 0.40079642646E+01 0.39668245297E+01 0.39532489341E+01 0.39668306286E+01
 0.40079689906E+01 0.40776160280E+01 0.41771097242E+01 0.43074617523E+01 0.44690910084E+01
 0.46612476098E+01 0.48817824016E+01 0.51273344351E+01 0.53930184912E+01 0.54680127152E+01
 0.58179358976E+01 0.61784347161E+01 0.65440395756E+01 0.69035884992E+01 0.72439046045E+01
 0.75550960309E+01 0.78305782817E+01 0.80660857476E+01 0.82587297356E+01 0.84062042175E+01
 0.85062113601E+01 0.85567975167E+01 0.85567998734E+01 0.85062220521E+01 0.84062261272E+01
 0.82587501676E+01 0.80660784588E+01 0.78305766144E+01 0.75550908028E+01 0.72438765738E+01
 0.69036130100E+01 0.65440394804E+01 0.61785045993E+01 0.58179338544E+01 0.54679528765E+01
 0.51338803003E+01 0.48209084750E+01 0.45338310932E+01 0.42765655354E+01 0.40519405193E+01
 0.38614889267E+01 0.37055524818E+01 0.35834507009E+01 0.34938775385E+01 0.34352909474E+01
 0.34063800265E+01 0.34063790450E+01 0.34352876137E+01 0.34938695275E+01 0.35834610125E+01
 0.37055630925E+01 0.38615149241E+01 0.40519617323E+01 0.42765543085E+01 0.45338339377E+01
 0.48208388244E+01 0.51338741614E+01 0.53997685964E+01 0.58179305259E+01 0.62548676061E+01
 0.67044543702E+01 0.71558874136E+01 0.75945933848E+01 0.80077462765E+01 0.83837783185E+01
 0.87116926406E+01 0.89810432337E+01 0.91820567837E+01 0.93064606697E+01 0.93486000414E+01
 0.93064588873E+01 0.91820546748E+01 0.89810374045E+01 0.87116956343E+01 0.83837824646E+01
 0.80077708099E+01 0.75946113118E+01 0.71558698552E+01 0.67044586449E+01 0.62547957560E+01
 0.58179338544E+01 0.53998280165E+01 0.50056690583E+01 0.46400779624E+01 0.43070524651E+01
 0.40096443003E+01 0.37498468371E+01 0.35284482843E+01 0.33451865840E+01 0.31988991083E+01
 0.30879148391E+01 0.30103579854E+01 0.29645934783E+01 0.29494657816E+01 0.29645924966E+01
 0.30103618041E+01 0.30879220618E+01 0.31988914380E+01 0.33451788090E+01 0.35284259019E+01
 0.37498303568E+01 0.40096584480E+01 0.43070479974E+01 0.46401473334E+01 0.50056660224E+01
 0.54680079696E+01 0.59626738177E+01 0.64839099797E+01 0.70245165504E+01 0.75720353701E+01
 0.81094954475E+01 0.86190246189E+01 0.90828301346E+01 0.94829475447E+01 0.98019772406E+01
 0.10024592788E+02 0.10139085208E+02 0.10139098393E+02 0.10024620122E+02 0.98020045436E+01
 0.94829364806E+01 0.90828092471E+01 0.86190063515E+01 0.81094781272E+01 0.75720335328E+01
 0.70245249143E+01 0.64839778282E+01 0.59626793220E+01 0.54679528765E+01 0.50056690583E+01
 0.45803385474E+01 0.41953573266E+01 0.38529298494E+01 0.35540784590E+01 0.32986768971E+01
 0.30856275844E+01 0.29131075578E+01 0.27788980613E+01 0.26807153383E+01 0.26165344591E+01
 0.25848442493E+01 0.25848452915E+01 0.26165344925E+01 0.26807122889E+01 0.27788903774E+01
 0.29131135970E+01 0.30856334061E+01 0.32986968809E+01 0.35540912309E+01 0.38529128747E+01
 0.41953613077E+01 0.45802641984E+01 0.50056762278E+01 0.56733886665E+01 0.62535877297E+01
 0.68667401756E+01 0.75024567480E+01 0.81461230249E+01 0.87766495502E+01 0.93703944944E+01
 0.99028391997E+01 0.10349542140E+02 0.10687826795E+02 0.10899043560E+02 0.10970876743E+02
 0.10899018744E+02 0.10687785808E+02 0.10349518886E+02 0.99028562531E+01 0.93704450564E+01
 0.87766635346E+01 0.81460965843E+01 0.75024857716E+01 0.68666463540E+01 0.62535876986E+01
 0.56734434034E+01 0.51338803003E+01 0.46400779624E+01 0.41953573266E+01 0.38013017608E+01
 0.34580133569E+01 0.31643265027E+01 0.29181264788E+01 0.27166838629E+01 0.25570374895E+01
 0.24363132503E+01 0.23520226635E+01 0.23022448328E+01 0.22857913677E+01 0.23022443252E+01
 0.23520227069E+01 0.24363151392E+01 0.25570465217E+01 0.27166777100E+01 0.29181246529E+01
 0.31643054431E+01 0.34580055893E+01 0.38013149998E+01 0.41953551802E+01 0.46401477525E+01
 0.51338676035E+01 0.60193837696E+01 0.66928770177E+01 0.74031499924E+01 0.81357206285E+01
 0.88711051619E+01 0.95841287701E+01 0.10244902031E+02 0.10822605872E+02 0.11287636158E+02
 0.11614046816E+02 0.11782462075E+02 0.11782471750E+02 0.11614070497E+02 0.11287660958E+02
 0.10822621314E+02 0.10244858556E+02 0.95840597913E+01 0.88711414621E+01 0.81357209710E+01
 0.74031955344E+01 0.66929165469E+01 0.60193083089E+01 0.53930135998E+01 0.48209084750E+01
 0.43070524651E+01 0.38529298494E+01 0.34580133569E+01 0.31201602602E+01 0.28361436958E+01
 0.26021258414E+01 0.24141620816E+01 0.22685601526E+01 0.21621929004E+01 0.20926321402E+01
 0.20582624154E+01 0.20582589405E+01 0.20926356884E+01 0.21621903674E+01 0.22685610736E+01
 0.24141507131E+01 0.26021322809E+01 0.28361409981E+01 0.31201809632E+01 0.34580145995E+01
 0.38529154922E+01 0.43070512135E+01 0.48208402718E+01 0.53930230087E+01 0.65096323139E+01
 0.72832703721E+01 0.80940075224E+01 0.89219131569E+01 0.97419385015E+01 0.10523384811E+02
 0.11231393731E+02 0.11829773388E+02 0.12285117443E+02 0.12570280587E+02 0.12667406537E+02
 0.12570273752E+02 0.12285112295E+02 0.11829756840E+02 0.11231401187E+02 0.10523456680E+02
 0.97419592989E+01 0.89218775470E+01 0.80939410059E+01 0.72832614045E+01 0.65096724209E+01
 0.57877828340E+01 0.51272573931E+01 0.45338310932E+01 0.40096443003E+01 0.35540784590E+01
 0.31643265027E+01 0.28361436958E+01 0.25645136117E+01 0.23443066920E+01 0.21707666538E+01
 0.20398806200E+01 0.19485316933E+01 0.18945630644E+01 0.18767074737E+01 0.18945636883E+01
 0.19485309831E+01 0.20398811587E+01 0.21707673349E+01 0.23443163004E+01 0.25645094732E+01
 0.28361456396E+01 0.31643078009E+01 0.35540789495E+01 0.40096616265E+01 0.45338272554E+01
 0.51273398007E+01 0.57877474076E+01 0.71496701254E+01 0.80282622872E+01 0.89408079937E+01
 0.98617176292E+01 0.10758867160E+02 0.11595389580E+02 0.12331136651E+02 0.12926273732E+02
 0.13345412643E+02 0.13562053575E+02 0.13562045892E+02 0.13345398932E+02 0.12926272351E+02
 0.12331138702E+02 0.11595349434E+02 0.10758825054E+02 0.98617066499E+01 0.89409187640E+01
 0.80282758739E+01 0.71496003639E+01 0.63242272103E+01 0.55655396235E+01 0.48817889383E+01
 0.42765655354E+01 0.37498468371E+01 0.32986768971E+01 0.29181264788E+01 0.26021258414E+01
 0.23443066920E+01 0.21386592402E+01 0.19800323742E+01 0.18643650475E+01 0.17887624866E+01
 0.17513931301E+01 0.17513957575E+01 0.17887599852E+01 0.18643680166E+01 0.19800303117E+01
 0.21386605694E+01 0.23442948282E+01 0.26021305261E+01 0.29181199534E+01 0.32986959757E+01
 0.37498395052E+01 0.42765546669E+01 0.48817845186E+01 0.55654746088E+01 0.63242470038E+01
 0.79463844732E+01 0.89354313483E+01 0.99520151634E+01 0.10963801754E+02 0.11932028688E+02
 0.12812570711E+02 0.13559765469E+02 0.14130343129E+02 0.14488564504E+02 0.14610758476E+02
 0.14488601095E+02 0.14130368525E+02 0.13559778190E+02 0.12812598848E+02 0.11932049102E+02
 0.10963843947E+02 0.99519251144E+01 0.89353714763E+01 0.79464600848E+01 0.70099718023E+01
 0.61436667598E+01 0.53588681812E+01 0.46612334363E+01 0.40519405193E+01 0.35284482843E+01
 0.30856275844E+01 0.27166838629E+01 0.24141620816E+01 0.21707666538E+01 0.19800323742E+01
 0.18366959212E+01 0.17368632474E+01 0.16779276820E+01 0.16584407832E+01 0.16779273417E+01
 0.17368644670E+01 0.18366946940E+01 0.19800335702E+01 0.21707656704E+01 0.24141725734E+01
 0.27166804843E+01 0.30856358876E+01 0.35284318157E+01 0.40519500452E+01 0.46612526485E+01
 0.53588614856E+01 0.61437571663E+01 0.70099269136E+01 0.89134547487E+01 0.10020258952E+02
 0.11145858585E+02 0.12250450298E+02 0.13286516583E+02 0.14202424925E+02 0.14946228009E+02
 0.15471696369E+02 0.15743839942E+02 0.15743809922E+02 0.15471638197E+02 0.14946190803E+02
 0.14202384837E+02 0.13286513494E+02 0.12250422028E+02 0.11145930660E+02 0.10020318183E+02
 0.89134074540E+01 0.78564019675E+01 0.68719609503E+01 0.59748069046E+01 0.51729728535E+01
 0.44691189809E+01 0.38614889267E+01 0.33451865840E+01 0.29131075578E+01 0.25570374895E+01
 0.22685601526E+01 0.20398806200E+01 0.18643650475E+01 0.17368632474E+01 0.16537230614E+01
 0.16126899985E+01 0.16126872452E+01 0.16537261685E+01 0.17368602749E+01 0.18643684725E+01
 0.20398774815E+01 0.22685635272E+01 0.25570242369E+01 0.29131113979E+01 0.33451735312E+01
 0.38615105442E+01 0.44690983023E+01 0.51729706608E+01 0.59747967506E+01 0.68718833938E+01
 0.78564633238E+01 0.10074351837E+02 0.11312474701E+02 0.12557622342E+02 0.13760277840E+02
 0.14863281620E+02 0.15805513330E+02 0.16528771147E+02 0.16984372209E+02 0.17140034267E+02
 0.16984425944E+02 0.16528850192E+02 0.15805585127E+02 0.14863296658E+02 0.13760293912E+02
 0.12557536128E+02 0.11312423819E+02 0.10074413719E+02 0.88827393867E+01 0.77659106258E+01
 0.67425653484E+01 0.58232088259E+01 0.50118537554E+01 0.43074868034E+01 0.37055524818E+01
 0.31988991083E+01 0.27788980613E+01 0.24363132503E+01 0.21621929004E+01 0.19485316933E+01
 0.17887624866E+01 0.16779276820E+01 0.16126899985E+01 0.15911436663E+01 0.16126905603E+01
 0.16779268369E+01 0.17887641156E+01 0.19485297948E+01 0.21621943061E+01 0.24363106115E+01
 0.27789110188E+01 0.31988977964E+01 0.37055655083E+01 0.43074721481E+01 0.50118700409E+01
 0.58232233981E+01 0.67425642804E+01 0.77659856850E+01 0.88826877713E+01 0.11468693515E+02
 0.12857380891E+02 0.14237160137E+02 0.15546011881E+02 0.16713634937E+02 0.17668808296E+02
 0.18346990084E+02 0.18699318175E+02 0.18699296237E+02 0.18346916487E+02 0.17668675619E+02
 0.16713582586E+02 0.15545989010E+02 0.14237277149E+02 0.12857464964E+02 0.11468615239E+02
 0.10120754698E+02 0.88504390857E+01 0.76815558049E+01 0.66274126083E+01 0.56931010980E+01
 0.48778861593E+01 0.41771257275E+01 0.35834507009E+01 0.30879148391E+01 0.26807153383E+01
 0.23520226635E+01 0.20926321402E+01 0.18945630644E+01 0.17513931301E+01 0.16584407832E+01
 0.16126872452E+01 0.16126905603E+01 0.16584374534E+01 0.17513967329E+01 0.18945590795E+01
 0.20926367159E+01 0.23520183364E+01 0.26807198189E+01 0.30878984549E+01 0.35834558316E+01
 0.41771035372E+01 0.48779131735E+01 0.56930647980E+01 0.66274142094E+01 0.76815586175E+01