   2   2   1   0
  0.1050029E+02  0.3096817E-09  0.3096817E-09  0.3096817E-09  0.5000000E-15
  1.000000000000000E-004
  CAR 
 unknown system                          
     97.88292546    -12.35681361  301      8.63467004      1.00000000
    -12.357  0.0000E+00  0.0000E+00
    -11.989  0.0000E+00  0.0000E+00
    -11.622  0.0000E+00  0.0000E+00
    -11.254  0.0000E+00  0.0000E+00
    -10.887  0.0000E+00  0.0000E+00
    -10.519  0.0000E+00  0.0000E+00
    -10.152  0.0000E+00  0.0000E+00
     -9.785  0.0000E+00  0.0000E+00
     -9.417  0.0000E+00  0.0000E+00
     -9.050  0.0000E+00  0.0000E+00
     -8.682  0.0000E+00  0.0000E+00
     -8.315  0.0000E+00  0.0000E+00
     -7.947  0.0000E+00  0.0000E+00
     -7.580  0.9239E-04  0.3395E-04
     -7.212  0.4330E+00  0.1591E+00
     -6.845  0.3813E+00  0.2993E+00
     -6.477  0.2383E+00  0.3868E+00
     -6.110  0.1938E+00  0.4580E+00
     -5.742  0.1756E+00  0.5226E+00
     -5.375  0.1525E+00  0.5786E+00
     -5.007  0.1376E+00  0.6291E+00
     -4.640  0.1379E+00  0.6798E+00
     -4.273  0.1451E+00  0.7331E+00
     -3.905  0.1857E+00  0.8013E+00
     -3.538  0.4378E+00  0.9622E+00
     -3.170  0.2334E+00  0.1048E+01
     -2.803  0.2180E+00  0.1128E+01
     -2.435  0.5304E+00  0.1323E+01
     -2.068  0.1824E+01  0.1993E+01
     -1.700  0.1832E-01  0.2000E+01
     -1.333  0.0000E+00  0.2000E+01
     -0.965  0.8004E-11  0.2000E+01
     -0.598  0.1731E-01  0.2006E+01
     -0.230  0.3750E+00  0.2144E+01
      0.137  0.2878E+00  0.2250E+01
      0.504  0.1266E+01  0.2715E+01
      0.872  0.9062E+00  0.3048E+01
      1.239  0.5121E+00  0.3236E+01
      1.607  0.1051E+00  0.3275E+01
      1.974  0.1060E+00  0.3314E+01
      2.342  0.1737E+00  0.3378E+01
      2.709  0.3370E+00  0.3502E+01
      3.077  0.6230E+00  0.3730E+01
      3.444  0.8202E+00  0.4032E+01
      3.812  0.6650E+00  0.4276E+01
      4.179  0.6023E+00  0.4498E+01
      4.547  0.6751E+00  0.4746E+01
      4.914  0.1586E+01  0.5328E+01
      5.282  0.9014E+00  0.5660E+01
      5.649  0.5864E+00  0.5875E+01
      6.016  0.4904E+00  0.6055E+01
      6.384  0.4826E+00  0.6233E+01
      6.751  0.5759E+00  0.6444E+01
      7.119  0.1236E+01  0.6898E+01
      7.486  0.8492E+00  0.7210E+01
      7.854  0.1177E+01  0.7643E+01
      8.221  0.9715E+00  0.8000E+01
      8.589  0.2152E-04  0.8000E+01
      8.956  0.4008E-07  0.8000E+01
      9.324  0.1634E+00  0.8060E+01
      9.691  0.5274E+00  0.8254E+01
     10.059  0.2988E+00  0.8364E+01
     10.426  0.2794E+00  0.8466E+01
     10.794  0.2583E+00  0.8561E+01
     11.161  0.2706E+00  0.8661E+01
     11.528  0.1489E+00  0.8715E+01
     11.896  0.1411E+00  0.8767E+01
     12.263  0.4079E+00  0.8917E+01
     12.631  0.6236E+00  0.9146E+01
     12.998  0.4862E+00  0.9325E+01
     13.366  0.1200E+01  0.9766E+01
     13.733  0.7246E+00  0.1003E+02
     14.101  0.6507E+00  0.1027E+02
     14.468  0.6859E+00  0.1052E+02
     14.836  0.6098E+00  0.1075E+02
     15.203  0.2045E+01  0.1150E+02
     15.571  0.1768E+01  0.1215E+02
     15.938  0.1226E+01  0.1260E+02
     16.306  0.4847E+00  0.1278E+02
     16.673  0.5078E+00  0.1296E+02
     17.040  0.6148E+00  0.1319E+02
     17.408  0.7187E+00  0.1345E+02
     17.775  0.6608E+00  0.1370E+02
     18.143  0.8243E+00  0.1400E+02
     18.510  0.4663E+00  0.1417E+02
     18.878  0.6633E+00  0.1441E+02
     19.245  0.6188E+00  0.1464E+02
     19.613  0.4616E+00  0.1481E+02
     19.980  0.4963E+00  0.1499E+02
     20.348  0.4946E+00  0.1518E+02
     20.715  0.7621E+00  0.1546E+02
     21.083  0.1328E+01  0.1594E+02
     21.450  0.1220E+01  0.1639E+02
     21.818  0.1988E+01  0.1712E+02
     22.185  0.1721E+01  0.1776E+02
     22.552  0.1359E+01  0.1825E+02
     22.920  0.4568E+00  0.1842E+02
     23.287  0.5162E+00  0.1861E+02
     23.655  0.4562E+00  0.1878E+02
     24.022  0.6655E+00  0.1902E+02
     24.390  0.9160E+00  0.1936E+02
     24.757  0.4894E+00  0.1954E+02
     25.125  0.1247E+01  0.2000E+02
     25.492  0.1458E+01  0.2054E+02
     25.860  0.7367E+00  0.2081E+02
     26.227  0.6678E+00  0.2105E+02
     26.595  0.5619E+00  0.2126E+02
     26.962  0.5878E+00  0.2147E+02
     27.329  0.4737E+00  0.2165E+02
     27.697  0.5637E+00  0.2185E+02
     28.064  0.7746E+00  0.2214E+02
     28.432  0.6442E+00  0.2238E+02
     28.799  0.9210E+00  0.2271E+02
     29.167  0.1182E+01  0.2315E+02
     29.534  0.1289E+01  0.2362E+02
     29.902  0.1131E+01  0.2404E+02
     30.269  0.1401E+01  0.2455E+02
     30.637  0.1381E+01  0.2506E+02
     31.004  0.8318E+00  0.2537E+02
     31.372  0.1021E+01  0.2574E+02
     31.739  0.8325E+00  0.2605E+02
     32.107  0.1045E+01  0.2643E+02
     32.474  0.6759E+00  0.2668E+02
     32.841  0.1540E+01  0.2725E+02
     33.209  0.6242E+00  0.2748E+02
     33.576  0.5681E+00  0.2768E+02
     33.944  0.7309E+00  0.2795E+02
     34.311  0.6463E+00  0.2819E+02
     34.679  0.8949E+00  0.2852E+02
     35.046  0.6464E+00  0.2876E+02
     35.414  0.6145E+00  0.2898E+02
     35.781  0.1329E+01  0.2947E+02
     36.149  0.1394E+01  0.2998E+02
     36.516  0.1503E+01  0.3054E+02
     36.884  0.6204E+00  0.3076E+02
     37.251  0.7751E+00  0.3105E+02
     37.619  0.1418E+01  0.3157E+02
     37.986  0.1148E+01  0.3199E+02
     38.353  0.1253E+01  0.3245E+02
     38.721  0.8354E+00  0.3276E+02
     39.088  0.1023E+01  0.3313E+02
     39.456  0.1280E+01  0.3360E+02
     39.823  0.9503E+00  0.3395E+02
     40.191  0.8293E+00  0.3426E+02
     40.558  0.1195E+01  0.3470E+02
     40.926  0.1275E+01  0.3517E+02
     41.293  0.1928E+01  0.3587E+02
     41.661  0.1847E+01  0.3655E+02
     42.028  0.1355E+01  0.3705E+02
     42.396  0.1018E+01  0.3743E+02
     42.763  0.5658E+00  0.3763E+02
     43.131  0.5056E+00  0.3782E+02
     43.498  0.6332E+00  0.3805E+02
     43.865  0.1107E+01  0.3846E+02
     44.233  0.1352E+01  0.3896E+02
     44.600  0.9567E+00  0.3931E+02
     44.968  0.1061E+01  0.3970E+02
     45.335  0.8432E+00  0.4001E+02
     45.703  0.8804E+00  0.4033E+02
     46.070  0.7297E+00  0.4060E+02
     46.438  0.4641E+00  0.4077E+02
     46.805  0.5394E+00  0.4097E+02
     47.173  0.5412E+00  0.4117E+02
     47.540  0.7769E+00  0.4145E+02
     47.908  0.6065E+00  0.4167E+02
     48.275  0.1141E+01  0.4209E+02
     48.643  0.1036E+01  0.4247E+02
     49.010  0.1262E+01  0.4294E+02
     49.377  0.1874E+01  0.4363E+02
     49.745  0.1452E+01  0.4416E+02
     50.112  0.1202E+01  0.4460E+02
     50.480  0.1405E+01  0.4512E+02
     50.847  0.1671E+01  0.4573E+02
     51.215  0.1344E+01  0.4623E+02
     51.582  0.1869E+01  0.4691E+02
     51.950  0.1542E+01  0.4748E+02
     52.317  0.1067E+01  0.4787E+02
     52.685  0.9328E+00  0.4821E+02
     53.052  0.1278E+01  0.4868E+02
     53.420  0.7572E+00  0.4896E+02
     53.787  0.3992E+00  0.4911E+02
     54.154  0.4701E+00  0.4928E+02
     54.522  0.4053E+00  0.4943E+02
     54.889  0.7803E+00  0.4972E+02
     55.257  0.7977E+00  0.5001E+02
     55.624  0.7745E+00  0.5030E+02
     55.992  0.3947E+00  0.5044E+02
     56.359  0.1058E+01  0.5083E+02
     56.727  0.7426E+00  0.5110E+02
     57.094  0.7945E+00  0.5139E+02
     57.462  0.1170E+01  0.5182E+02
     57.829  0.1100E+01  0.5223E+02
     58.197  0.6396E+00  0.5246E+02
     58.564  0.5368E+00  0.5266E+02
     58.932  0.7066E+00  0.5292E+02
     59.299  0.5599E+00  0.5313E+02
     59.666  0.4603E+00  0.5329E+02
     60.034  0.1013E+01  0.5367E+02
     60.401  0.9777E+00  0.5403E+02
     60.769  0.6451E+00  0.5426E+02
     61.136  0.5638E+00  0.5447E+02
     61.504  0.1034E+01  0.5485E+02
     61.871  0.1245E+01  0.5531E+02
     62.239  0.9995E+00  0.5567E+02
     62.606  0.1685E+01  0.5629E+02
     62.974  0.2416E+01  0.5718E+02
     63.341  0.3082E+01  0.5831E+02
     63.709  0.1492E+01  0.5886E+02
     64.076  0.1463E+01  0.5940E+02
     64.444  0.1459E+01  0.5994E+02
     64.811  0.1024E+01  0.6031E+02
     65.178  0.2413E+01  0.6120E+02
     65.546  0.1507E+01  0.6175E+02
     65.913  0.1004E+01  0.6212E+02
     66.281  0.1134E+01  0.6254E+02
     66.648  0.1330E+01  0.6303E+02
     67.016  0.1361E+01  0.6353E+02
     67.383  0.1589E+01  0.6411E+02
     67.751  0.1949E+01  0.6483E+02
     68.118  0.1313E+01  0.6531E+02
     68.486  0.1135E+01  0.6573E+02
     68.853  0.8568E+00  0.6604E+02
     69.221  0.1458E+01  0.6658E+02
     69.588  0.1436E+01  0.6711E+02
     69.956  0.1239E+01  0.6756E+02
     70.323  0.2152E+01  0.6835E+02
     70.690  0.2474E+01  0.6926E+02
     71.058  0.1872E+01  0.6995E+02
     71.425  0.1200E+01  0.7039E+02
     71.793  0.7996E+00  0.7068E+02
     72.160  0.1608E+01  0.7127E+02
     72.528  0.1741E+01  0.7191E+02
     72.895  0.2193E+01  0.7272E+02
     73.263  0.1398E+01  0.7323E+02
     73.630  0.1365E+01  0.7374E+02
     73.998  0.7977E+00  0.7403E+02
     74.365  0.1061E+01  0.7442E+02
     74.733  0.1620E+01  0.7501E+02
     75.100  0.1742E+01  0.7565E+02
     75.468  0.1113E+01  0.7606E+02
     75.835  0.1066E+01  0.7646E+02
     76.202  0.1245E+01  0.7691E+02
     76.570  0.1345E+01  0.7741E+02
     76.937  0.1617E+01  0.7800E+02
     77.305  0.1458E+01  0.7854E+02
     77.672  0.1362E+01  0.7904E+02
     78.040  0.2226E+01  0.7986E+02
     78.407  0.1026E+01  0.8023E+02
     78.775  0.1026E+01  0.8061E+02
     79.142  0.1062E+01  0.8100E+02
     79.510  0.1240E+01  0.8146E+02
     79.877  0.1499E+01  0.8201E+02
     80.245  0.1543E+01  0.8257E+02
     80.612  0.2286E+01  0.8341E+02
     80.979  0.1348E+01  0.8391E+02
     81.347  0.2215E+01  0.8472E+02
     81.714  0.1322E+01  0.8521E+02
     82.082  0.1178E+01  0.8564E+02
     82.449  0.1183E+01  0.8608E+02
     82.817  0.1271E+01  0.8654E+02
     83.184  0.1009E+01  0.8691E+02
     83.552  0.1208E+01  0.8736E+02
     83.919  0.1279E+01  0.8783E+02
     84.287  0.6965E+00  0.8808E+02
     84.654  0.1326E+01  0.8857E+02
     85.022  0.7465E+00  0.8885E+02
     85.389  0.5574E+00  0.8905E+02
     85.757  0.1165E+01  0.8948E+02
     86.124  0.6197E+00  0.8971E+02
     86.491  0.1198E+01  0.9015E+02
     86.859  0.7184E+00  0.9041E+02
     87.226  0.1096E+01  0.9081E+02
     87.594  0.1086E+01  0.9121E+02
     87.961  0.6451E+00  0.9145E+02
     88.329  0.1696E+01  0.9207E+02
     88.696  0.1727E+01  0.9271E+02
     89.064  0.1302E+01  0.9319E+02
     89.431  0.1949E+01  0.9390E+02
     89.799  0.1493E+01  0.9445E+02
     90.166  0.9762E+00  0.9481E+02
     90.534  0.1013E+01  0.9518E+02
     90.901  0.1095E+01  0.9558E+02
     91.269  0.7179E+00  0.9585E+02
     91.636  0.2079E+00  0.9592E+02
     92.003  0.2827E-01  0.9593E+02
     92.371  0.1009E+00  0.9597E+02
     92.738  0.3408E-01  0.9598E+02
     93.106  0.4400E-01  0.9600E+02
     93.473  0.2138E-04  0.9600E+02
     93.841  0.0000E+00  0.9600E+02
     94.208  0.0000E+00  0.9600E+02
     94.576  0.0000E+00  0.9600E+02
     94.943  0.0000E+00  0.9600E+02
     95.311  0.0000E+00  0.9600E+02
     95.678  0.0000E+00  0.9600E+02
     96.046  0.0000E+00  0.9600E+02
     96.413  0.0000E+00  0.9600E+02
     96.781  0.0000E+00  0.9600E+02
     97.148  0.0000E+00  0.9600E+02
     97.515  0.0000E+00  0.9600E+02
     97.883  0.0000E+00  0.9600E+02
     97.88292546    -12.35681361  301      8.63467004      1.00000000
    -12.357  0.0000E+00  0.0000E+00  0.0000E+00  0.0000E+00  0.0000E+00  0.0000E+00  0.0000E+00  0.0000E+00  0.0000E+00
    -11.989  0.0000E+00  0.0000E+00  0.0000E+00  0.0000E+00  0.0000E+00  0.0000E+00  0.0000E+00  0.0000E+00  0.0000E+00
    -11.622  0.0000E+00  0.0000E+00  0.0000E+00  0.0000E+00  0.0000E+00  0.0000E+00  0.0000E+00  0.0000E+00  0.0000E+00
    -11.254  0.0000E+00  0.0000E+00  0.0000E+00  0.0000E+00  0.0000E+00  0.0000E+00  0.0000E+00  0.0000E+00  0.0000E+00
    -10.887  0.0000E+00  0.0000E+00  0.0000E+00  0.0000E+00  0.0000E+00  0.0000E+00  0.0000E+00  0.0000E+00  0.0000E+00
    -10.519  0.0000E+00  0.0000E+00  0.0000E+00  0.0000E+00  0.0000E+00  0.0000E+00  0.0000E+00  0.0000E+00  0.0000E+00
    -10.152  0.0000E+00  0.0000E+00  0.0000E+00  0.0000E+00  0.0000E+00  0.0000E+00  0.0000E+00  0.0000E+00  0.0000E+00
     -9.785  0.0000E+00  0.0000E+00  0.0000E+00  0.0000E+00  0.0000E+00  0.0000E+00  0.0000E+00  0.0000E+00  0.0000E+00
     -9.417  0.0000E+00  0.0000E+00  0.0000E+00  0.0000E+00  0.0000E+00  0.0000E+00  0.0000E+00  0.0000E+00  0.0000E+00
     -9.050  0.0000E+00  0.0000E+00  0.0000E+00  0.0000E+00  0.0000E+00  0.0000E+00  0.0000E+00  0.0000E+00  0.0000E+00
     -8.682  0.0000E+00  0.0000E+00  0.0000E+00  0.0000E+00  0.0000E+00  0.0000E+00  0.0000E+00  0.0000E+00  0.0000E+00
     -8.315  0.0000E+00  0.0000E+00  0.0000E+00  0.0000E+00  0.0000E+00  0.0000E+00  0.0000E+00  0.0000E+00  0.0000E+00
     -7.947  0.0000E+00  0.0000E+00  0.0000E+00  0.0000E+00  0.0000E+00  0.0000E+00  0.0000E+00  0.0000E+00  0.0000E+00
     -7.580  0.2251E-04  0.6451E-08  0.1336E-08  0.2974E-08  0.0000E+00  0.0000E+00  0.0000E+00  0.0000E+00  0.0000E+00
     -7.212  0.1051E+00  0.2252E-03  0.4669E-04  0.1037E-03  0.0000E+00  0.0000E+00  0.0000E+00  0.0000E+00  0.0000E+00
     -6.845  0.9035E-01  0.1263E-02  0.2623E-03  0.5797E-03  0.0000E+00  0.0000E+00  0.0000E+00  0.0000E+00  0.0000E+00
     -6.477  0.5420E-01  0.1866E-02  0.3991E-03  0.8337E-03  0.0000E+00  0.0000E+00  0.0000E+00  0.0000E+00  0.0000E+00
     -6.110  0.4229E-01  0.2355E-02  0.4662E-03  0.1032E-02  0.0000E+00  0.0000E+00  0.0000E+00  0.0000E+00  0.0000E+00
     -5.742  0.3664E-01  0.2696E-02  0.6457E-03  0.1344E-02  0.0000E+00  0.0000E+00  0.0000E+00  0.0000E+00  0.0000E+00
     -5.375  0.3032E-01  0.2996E-02  0.6730E-03  0.1400E-02  0.0000E+00  0.0000E+00  0.0000E+00  0.0000E+00  0.0000E+00
     -5.007  0.2591E-01  0.3306E-02  0.7183E-03  0.1438E-02  0.0000E+00  0.0000E+00  0.0000E+00  0.0000E+00  0.0000E+00
     -4.640  0.2445E-01  0.3794E-02  0.9265E-03  0.1596E-02  0.0000E+00  0.0000E+00  0.0000E+00  0.0000E+00  0.0000E+00
     -4.273  0.2397E-01  0.4453E-02  0.1206E-02  0.1841E-02  0.0000E+00  0.0000E+00  0.0000E+00  0.0000E+00  0.0000E+00
     -3.905  0.2784E-01  0.5770E-02  0.2066E-02  0.2737E-02  0.0000E+00  0.0000E+00  0.0000E+00  0.0000E+00  0.0000E+00
     -3.538  0.6041E-01  0.1123E-01  0.7344E-02  0.7235E-02  0.0000E+00  0.0000E+00  0.0000E+00  0.0000E+00  0.0000E+00
     -3.170  0.2650E-01  0.8544E-02  0.4972E-02  0.3441E-02  0.0000E+00  0.0000E+00  0.0000E+00  0.0000E+00  0.0000E+00
     -2.803  0.1866E-01  0.9891E-02  0.6100E-02  0.2757E-02  0.0000E+00  0.0000E+00  0.0000E+00  0.0000E+00  0.0000E+00
     -2.435  0.1413E-01  0.4576E-01  0.1187E-01  0.3337E-02  0.0000E+00  0.0000E+00  0.0000E+00  0.0000E+00  0.0000E+00
     -2.068  0.7181E-02  0.1883E+00  0.3405E-01  0.4456E-02  0.0000E+00  0.0000E+00  0.0000E+00  0.0000E+00  0.0000E+00
     -1.700  0.7623E-05  0.1278E-02  0.9099E-03  0.1103E-05  0.0000E+00  0.0000E+00  0.0000E+00  0.0000E+00  0.0000E+00
     -1.333  0.0000E+00  0.0000E+00  0.0000E+00  0.0000E+00  0.0000E+00  0.0000E+00  0.0000E+00  0.0000E+00  0.0000E+00
     -0.965  0.1280E-11  0.3067E-12  0.3067E-12  0.3066E-12  0.0000E+00  0.0000E+00  0.0000E+00  0.0000E+00  0.0000E+00
     -0.598  0.2770E-02  0.6632E-03  0.6632E-03  0.6625E-03  0.0000E+00  0.0000E+00  0.0000E+00  0.0000E+00  0.0000E+00
     -0.230  0.6049E-01  0.1432E-01  0.1432E-01  0.1419E-01  0.0000E+00  0.0000E+00  0.0000E+00  0.0000E+00  0.0000E+00
      0.137  0.6526E-01  0.7330E-02  0.7333E-02  0.6990E-02  0.0000E+00  0.0000E+00  0.0000E+00  0.0000E+00  0.0000E+00
      0.504  0.4216E+00  0.6098E-02  0.5705E-02  0.5640E-02  0.0000E+00  0.0000E+00  0.0000E+00  0.0000E+00  0.0000E+00
      0.872  0.3080E+00  0.8304E-02  0.7924E-02  0.5092E-02  0.0000E+00  0.0000E+00  0.0000E+00  0.0000E+00  0.0000E+00
      1.239  0.1701E+00  0.4397E-02  0.9551E-02  0.2273E-02  0.0000E+00  0.0000E+00  0.0000E+00  0.0000E+00  0.0000E+00
      1.607  0.1822E-01  0.1654E-02  0.7098E-02  0.7853E-03  0.0000E+00  0.0000E+00  0.0000E+00  0.0000E+00  0.0000E+00
      1.974  0.1599E-01  0.2455E-02  0.6282E-02  0.1234E-02  0.0000E+00  0.0000E+00  0.0000E+00  0.0000E+00  0.0000E+00
      2.342  0.1805E-01  0.7078E-02  0.8417E-02  0.4799E-02  0.0000E+00  0.0000E+00  0.0000E+00  0.0000E+00  0.0000E+00
      2.709  0.1085E-01  0.1815E-01  0.2024E-01  0.1977E-01  0.0000E+00  0.0000E+00  0.0000E+00  0.0000E+00  0.0000E+00
      3.077  0.2009E-01  0.1970E-01  0.2457E-01  0.5765E-01  0.0000E+00  0.0000E+00  0.0000E+00  0.0000E+00  0.0000E+00
      3.444  0.2495E-01  0.4215E-01  0.5345E-01  0.5178E-01  0.0000E+00  0.0000E+00  0.0000E+00  0.0000E+00  0.0000E+00
      3.812  0.1881E-01  0.3027E-01  0.5434E-01  0.4017E-01  0.0000E+00  0.0000E+00  0.0000E+00  0.0000E+00  0.0000E+00
      4.179  0.1785E-01  0.2100E-01  0.4730E-01  0.4317E-01  0.0000E+00  0.0000E+00  0.0000E+00  0.0000E+00  0.0000E+00
      4.547  0.1821E-01  0.1786E-01  0.5526E-01  0.5172E-01  0.0000E+00  0.0000E+00  0.0000E+00  0.0000E+00  0.0000E+00
      4.914  0.1388E-01  0.1380E-01  0.1580E+00  0.1586E+00  0.0000E+00  0.0000E+00  0.0000E+00  0.0000E+00  0.0000E+00
      5.282  0.8258E-02  0.1095E-01  0.8453E-01  0.8469E-01  0.0000E+00  0.0000E+00  0.0000E+00  0.0000E+00  0.0000E+00
      5.649  0.8949E-02  0.2010E-01  0.3846E-01  0.4550E-01  0.0000E+00  0.0000E+00  0.0000E+00  0.0000E+00  0.0000E+00
      6.016  0.8599E-02  0.2085E-01  0.2436E-01  0.3248E-01  0.0000E+00  0.0000E+00  0.0000E+00  0.0000E+00  0.0000E+00
      6.384  0.6694E-02  0.1988E-01  0.2244E-01  0.2975E-01  0.0000E+00  0.0000E+00  0.0000E+00  0.0000E+00  0.0000E+00
      6.751  0.4749E-02  0.2291E-01  0.2551E-01  0.3452E-01  0.0000E+00  0.0000E+00  0.0000E+00  0.0000E+00  0.0000E+00
      7.119  0.3088E-02  0.5475E-01  0.5480E-01  0.6522E-01  0.0000E+00  0.0000E+00  0.0000E+00  0.0000E+00  0.0000E+00
      7.486  0.2290E-02  0.2979E-01  0.2978E-01  0.3494E-01  0.0000E+00  0.0000E+00  0.0000E+00  0.0000E+00  0.0000E+00
      7.854  0.1359E-02  0.3062E-01  0.2805E-01  0.3426E-01  0.0000E+00  0.0000E+00  0.0000E+00  0.0000E+00  0.0000E+00
      8.221  0.1588E-03  0.2052E-01  0.1708E-01  0.2160E-01  0.0000E+00  0.0000E+00  0.0000E+00  0.0000E+00  0.0000E+00
      8.589  0.9810E-10  0.4386E-06  0.3575E-06  0.4473E-06  0.0000E+00  0.0000E+00  0.0000E+00  0.0000E+00  0.0000E+00
      8.956  0.7318E-12  0.3958E-08  0.1862E-11  0.8078E-12  0.0000E+00  0.0000E+00  0.0000E+00  0.0000E+00  0.0000E+00
      9.324  0.2300E-04  0.1611E-01  0.4111E-04  0.1678E-04  0.0000E+00  0.0000E+00  0.0000E+00  0.0000E+00  0.0000E+00
      9.691  0.7650E-03  0.5123E-01  0.8388E-03  0.3222E-03  0.0000E+00  0.0000E+00  0.0000E+00  0.0000E+00  0.0000E+00
     10.059  0.2479E-02  0.2755E-01  0.1209E-02  0.3906E-03  0.0000E+00  0.0000E+00  0.0000E+00  0.0000E+00  0.0000E+00
     10.426  0.5343E-02  0.2471E-01  0.1190E-02  0.2251E-03  0.0000E+00  0.0000E+00  0.0000E+00  0.0000E+00  0.0000E+00
     10.794  0.8308E-02  0.2165E-01  0.9437E-03  0.4851E-04  0.0000E+00  0.0000E+00  0.0000E+00  0.0000E+00  0.0000E+00
     11.161  0.1111E-01  0.1875E-01  0.3897E-02  0.1772E-04  0.0000E+00  0.0000E+00  0.0000E+00  0.0000E+00  0.0000E+00
     11.528  0.5222E-02  0.1180E-01  0.3856E-02  0.5139E-04  0.0000E+00  0.0000E+00  0.0000E+00  0.0000E+00  0.0000E+00
     11.896  0.5824E-02  0.1282E-01  0.3508E-02  0.1263E-03  0.0000E+00  0.0000E+00  0.0000E+00  0.0000E+00  0.0000E+00
     12.263  0.7282E-01  0.1282E-01  0.3435E-02  0.3478E-03  0.0000E+00  0.0000E+00  0.0000E+00  0.0000E+00  0.0000E+00
     12.631  0.1242E+00  0.9508E-02  0.3824E-02  0.1829E-02  0.0000E+00  0.0000E+00  0.0000E+00  0.0000E+00  0.0000E+00
     12.998  0.6642E-01  0.1276E-01  0.4355E-02  0.3203E-02  0.0000E+00  0.0000E+00  0.0000E+00  0.0000E+00  0.0000E+00
     13.366  0.1454E+00  0.2535E-01  0.1314E-01  0.8601E-02  0.0000E+00  0.0000E+00  0.0000E+00  0.0000E+00  0.0000E+00
     13.733  0.1308E+00  0.2828E-01  0.1443E-01  0.1035E-01  0.0000E+00  0.0000E+00  0.0000E+00  0.0000E+00  0.0000E+00
     14.101  0.9031E-01  0.2652E-01  0.1122E-01  0.1235E-01  0.0000E+00  0.0000E+00  0.0000E+00  0.0000E+00  0.0000E+00
     14.468  0.7527E-01  0.3470E-01  0.1581E-01  0.1492E-01  0.0000E+00  0.0000E+00  0.0000E+00  0.0000E+00  0.0000E+00
     14.836  0.5560E-01  0.3934E-01  0.3385E-01  0.1457E-01  0.0000E+00  0.0000E+00  0.0000E+00  0.0000E+00  0.0000E+00
     15.203  0.9367E-01  0.2527E+00  0.1757E+00  0.2142E+00  0.0000E+00  0.0000E+00  0.0000E+00  0.0000E+00  0.0000E+00
     15.571  0.3661E-01  0.1834E+00  0.2212E+00  0.2363E+00  0.0000E+00  0.0000E+00  0.0000E+00  0.0000E+00  0.0000E+00
     15.938  0.2920E-01  0.1170E+00  0.1455E+00  0.1529E+00  0.0000E+00  0.0000E+00  0.0000E+00  0.0000E+00  0.0000E+00
     16.306  0.1993E-01  0.2647E-01  0.5226E-01  0.5105E-01  0.0000E+00  0.0000E+00  0.0000E+00  0.0000E+00  0.0000E+00
     16.673  0.2587E-01  0.1902E-01  0.5071E-01  0.3664E-01  0.0000E+00  0.0000E+00  0.0000E+00  0.0000E+00  0.0000E+00
     17.040  0.4034E-01  0.1694E-01  0.4587E-01  0.3425E-01  0.0000E+00  0.0000E+00  0.0000E+00  0.0000E+00  0.0000E+00
     17.408  0.5639E-01  0.3062E-01  0.4888E-01  0.3242E-01  0.0000E+00  0.0000E+00  0.0000E+00  0.0000E+00  0.0000E+00
     17.775  0.3746E-01  0.1909E-01  0.3495E-01  0.4711E-01  0.0000E+00  0.0000E+00  0.0000E+00  0.0000E+00  0.0000E+00
     18.143  0.3242E-01  0.1647E-01  0.2628E-01  0.3302E-01  0.0000E+00  0.0000E+00  0.0000E+00  0.0000E+00  0.0000E+00
     18.510  0.2657E-01  0.1538E-01  0.2477E-01  0.2643E-01  0.0000E+00  0.0000E+00  0.0000E+00  0.0000E+00  0.0000E+00
     18.878  0.2084E-01  0.1901E-01  0.3428E-01  0.2624E-01  0.0000E+00  0.0000E+00  0.0000E+00  0.0000E+00  0.0000E+00
     19.245  0.1790E-01  0.1618E-01  0.3137E-01  0.2370E-01  0.0000E+00  0.0000E+00  0.0000E+00  0.0000E+00  0.0000E+00
     19.613  0.1121E-01  0.7857E-02  0.1844E-01  0.1665E-01  0.0000E+00  0.0000E+00  0.0000E+00  0.0000E+00  0.0000E+00
     19.980  0.8861E-02  0.9042E-02  0.2941E-01  0.2810E-01  0.0000E+00  0.0000E+00  0.0000E+00  0.0000E+00  0.0000E+00
     20.348  0.9552E-02  0.1004E-01  0.3627E-01  0.3122E-01  0.0000E+00  0.0000E+00  0.0000E+00  0.0000E+00  0.0000E+00
     20.715  0.1163E-01  0.2490E-01  0.4684E-01  0.5692E-01  0.0000E+00  0.0000E+00  0.0000E+00  0.0000E+00  0.0000E+00
     21.083  0.1944E-01  0.3122E-01  0.6680E-01  0.8618E-01  0.0000E+00  0.0000E+00  0.0000E+00  0.0000E+00  0.0000E+00
     21.450  0.1849E-01  0.1888E-01  0.7181E-01  0.7636E-01  0.0000E+00  0.0000E+00  0.0000E+00  0.0000E+00  0.0000E+00
     21.818  0.2074E-01  0.1475E-01  0.1349E+00  0.1664E+00  0.0000E+00  0.0000E+00  0.0000E+00  0.0000E+00  0.0000E+00
     22.185  0.2426E-01  0.5534E-02  0.3348E-01  0.2061E+00  0.0000E+00  0.0000E+00  0.0000E+00  0.0000E+00  0.0000E+00
     22.552  0.4731E-01  0.1060E-01  0.1128E-01  0.1355E-01  0.0000E+00  0.0000E+00  0.0000E+00  0.0000E+00  0.0000E+00
     22.920  0.1459E-01  0.5402E-02  0.1065E-01  0.7043E-02  0.0000E+00  0.0000E+00  0.0000E+00  0.0000E+00  0.0000E+00
     23.287  0.2279E-01  0.9467E-02  0.1369E-01  0.1083E-01  0.0000E+00  0.0000E+00  0.0000E+00  0.0000E+00  0.0000E+00
     23.655  0.1705E-01  0.8140E-02  0.1631E-01  0.9139E-02  0.0000E+00  0.0000E+00  0.0000E+00  0.0000E+00  0.0000E+00
     24.022  0.3534E-01  0.8433E-02  0.9802E-02  0.1331E-01  0.0000E+00  0.0000E+00  0.0000E+00  0.0000E+00  0.0000E+00
     24.390  0.1325E+00  0.9237E-02  0.1146E-01  0.1480E-01  0.0000E+00  0.0000E+00  0.0000E+00  0.0000E+00  0.0000E+00
     24.757  0.3266E-01  0.1003E-01  0.1034E-01  0.1015E-01  0.0000E+00  0.0000E+00  0.0000E+00  0.0000E+00  0.0000E+00
     25.125  0.3035E-01  0.2013E-01  0.2061E-01  0.2599E-01  0.0000E+00  0.0000E+00  0.0000E+00  0.0000E+00  0.0000E+00
     25.492  0.4517E-01  0.8733E-02  0.8533E-02  0.1303E-01  0.0000E+00  0.0000E+00  0.0000E+00  0.0000E+00  0.0000E+00
     25.860  0.3036E-01  0.4758E-02  0.5417E-02  0.1070E-01  0.0000E+00  0.0000E+00  0.0000E+00  0.0000E+00  0.0000E+00
     26.227  0.3188E-01  0.6561E-02  0.4799E-02  0.1055E-01  0.0000E+00  0.0000E+00  0.0000E+00  0.0000E+00  0.0000E+00
     26.595  0.3444E-01  0.1003E-01  0.5487E-02  0.1120E-01  0.0000E+00  0.0000E+00  0.0000E+00  0.0000E+00  0.0000E+00
     26.962  0.1801E-01  0.6930E-02  0.4172E-02  0.1161E-01  0.0000E+00  0.0000E+00  0.0000E+00  0.0000E+00  0.0000E+00
     27.329  0.2534E-01  0.1345E-01  0.6151E-02  0.1023E-01  0.0000E+00  0.0000E+00  0.0000E+00  0.0000E+00  0.0000E+00
     27.697  0.1337E-01  0.6645E-02  0.6068E-02  0.9025E-02  0.0000E+00  0.0000E+00  0.0000E+00  0.0000E+00  0.0000E+00
     28.064  0.2498E-01  0.1831E-01  0.8064E-02  0.9823E-02  0.0000E+00  0.0000E+00  0.0000E+00  0.0000E+00  0.0000E+00
     28.432  0.1082E-01  0.2063E-01  0.1992E-01  0.1644E-01  0.0000E+00  0.0000E+00  0.0000E+00  0.0000E+00  0.0000E+00
     28.799  0.2096E-01  0.8624E-01  0.7899E-01  0.1152E-01  0.0000E+00  0.0000E+00  0.0000E+00  0.0000E+00  0.0000E+00
     29.167  0.1604E-01  0.1339E+00  0.1460E+00  0.9703E-02  0.0000E+00  0.0000E+00  0.0000E+00  0.0000E+00  0.0000E+00
     29.534  0.1377E-01  0.1506E+00  0.9998E-01  0.5057E-01  0.0000E+00  0.0000E+00  0.0000E+00  0.0000E+00  0.0000E+00
     29.902  0.1489E-01  0.9117E-01  0.8113E-01  0.5917E-01  0.0000E+00  0.0000E+00  0.0000E+00  0.0000E+00  0.0000E+00
     30.269  0.1337E-01  0.1184E+00  0.8031E-01  0.9151E-01  0.0000E+00  0.0000E+00  0.0000E+00  0.0000E+00  0.0000E+00
     30.637  0.1167E-01  0.1732E+00  0.6846E-01  0.7942E-01  0.0000E+00  0.0000E+00  0.0000E+00  0.0000E+00  0.0000E+00
     31.004  0.2770E-02  0.5756E-01  0.2419E-01  0.2722E-01  0.0000E+00  0.0000E+00  0.0000E+00  0.0000E+00  0.0000E+00
     31.372  0.2488E-01  0.5775E-01  0.2160E-01  0.3172E-01  0.0000E+00  0.0000E+00  0.0000E+00  0.0000E+00  0.0000E+00
     31.739  0.1620E-01  0.5144E-01  0.2497E-01  0.1965E-01  0.0000E+00  0.0000E+00  0.0000E+00  0.0000E+00  0.0000E+00
     32.107  0.9862E-02  0.6518E-01  0.4782E-01  0.2208E-01  0.0000E+00  0.0000E+00  0.0000E+00  0.0000E+00  0.0000E+00
     32.474  0.1071E-01  0.2105E-01  0.1403E-01  0.2156E-01  0.0000E+00  0.0000E+00  0.0000E+00  0.0000E+00  0.0000E+00
     32.841  0.8572E-02  0.2651E-01  0.1023E-01  0.2201E-01  0.0000E+00  0.0000E+00  0.0000E+00  0.0000E+00  0.0000E+00
     33.209  0.1567E-01  0.6406E-02  0.3561E-02  0.8864E-02  0.0000E+00  0.0000E+00  0.0000E+00  0.0000E+00  0.0000E+00
     33.576  0.4844E-02  0.1177E-01  0.2034E-02  0.8480E-02  0.0000E+00  0.0000E+00  0.0000E+00  0.0000E+00  0.0000E+00
     33.944  0.1102E-01  0.1587E-01  0.4885E-02  0.7788E-02  0.0000E+00  0.0000E+00  0.0000E+00  0.0000E+00  0.0000E+00
     34.311  0.8832E-02  0.9588E-02  0.2248E-01  0.2076E-01  0.0000E+00  0.0000E+00  0.0000E+00  0.0000E+00  0.0000E+00
     34.679  0.1239E-01  0.8898E-02  0.1768E-01  0.2059E-01  0.0000E+00  0.0000E+00  0.0000E+00  0.0000E+00  0.0000E+00
     35.046  0.9071E-02  0.5550E-02  0.5645E-02  0.1388E-01  0.0000E+00  0.0000E+00  0.0000E+00  0.0000E+00  0.0000E+00
     35.414  0.5950E-02  0.3582E-02  0.1075E-01  0.1514E-01  0.0000E+00  0.0000E+00  0.0000E+00  0.0000E+00  0.0000E+00
     35.781  0.1910E-01  0.1323E-01  0.1497E-01  0.1885E-01  0.0000E+00  0.0000E+00  0.0000E+00  0.0000E+00  0.0000E+00
     36.149  0.1218E-01  0.2626E-01  0.2740E-01  0.2146E-01  0.0000E+00  0.0000E+00  0.0000E+00  0.0000E+00  0.0000E+00
     36.516  0.1163E-01  0.8266E-02  0.2331E-01  0.2134E-01  0.0000E+00  0.0000E+00  0.0000E+00  0.0000E+00  0.0000E+00
     36.884  0.1383E-01  0.3708E-02  0.1132E-01  0.1033E-01  0.0000E+00  0.0000E+00  0.0000E+00  0.0000E+00  0.0000E+00
     37.251  0.2513E-01  0.5608E-02  0.1466E-01  0.5687E-02  0.0000E+00  0.0000E+00  0.0000E+00  0.0000E+00  0.0000E+00
     37.619  0.1342E-01  0.1542E-01  0.5437E-01  0.1880E-01  0.0000E+00  0.0000E+00  0.0000E+00  0.0000E+00  0.0000E+00
     37.986  0.1398E-01  0.1214E-01  0.2319E-01  0.1124E-01  0.0000E+00  0.0000E+00  0.0000E+00  0.0000E+00  0.0000E+00
     38.353  0.1235E-01  0.1128E-01  0.1988E-01  0.1713E-01  0.0000E+00  0.0000E+00  0.0000E+00  0.0000E+00  0.0000E+00
     38.721  0.1676E-01  0.6868E-02  0.9060E-02  0.7539E-02  0.0000E+00  0.0000E+00  0.0000E+00  0.0000E+00  0.0000E+00
     39.088  0.5666E-02  0.1708E-01  0.1939E-01  0.1932E-01  0.0000E+00  0.0000E+00  0.0000E+00  0.0000E+00  0.0000E+00
     39.456  0.9453E-02  0.2297E-01  0.1681E-01  0.1312E-01  0.0000E+00  0.0000E+00  0.0000E+00  0.0000E+00  0.0000E+00
     39.823  0.4839E-02  0.1804E-01  0.2808E-01  0.1720E-01  0.0000E+00  0.0000E+00  0.0000E+00  0.0000E+00  0.0000E+00
     40.191  0.1175E-01  0.1551E-01  0.2613E-01  0.1906E-01  0.0000E+00  0.0000E+00  0.0000E+00  0.0000E+00  0.0000E+00
     40.558  0.7965E-02  0.2243E-01  0.4254E-01  0.2439E-01  0.0000E+00  0.0000E+00  0.0000E+00  0.0000E+00  0.0000E+00
     40.926  0.5665E-02  0.4120E-01  0.2705E-01  0.2538E-01  0.0000E+00  0.0000E+00  0.0000E+00  0.0000E+00  0.0000E+00
     41.293  0.7666E-02  0.1393E+00  0.3613E-01  0.3953E-01  0.0000E+00  0.0000E+00  0.0000E+00  0.0000E+00  0.0000E+00
     41.661  0.6448E-02  0.1138E+00  0.3386E-01  0.3323E-01  0.0000E+00  0.0000E+00  0.0000E+00  0.0000E+00  0.0000E+00
     42.028  0.9425E-02  0.6142E-01  0.2272E-01  0.1532E-01  0.0000E+00  0.0000E+00  0.0000E+00  0.0000E+00  0.0000E+00
     42.396  0.8898E-02  0.6414E-01  0.1772E-01  0.8133E-02  0.0000E+00  0.0000E+00  0.0000E+00  0.0000E+00  0.0000E+00
     42.763  0.4658E-02  0.1836E-01  0.7931E-02  0.8825E-02  0.0000E+00  0.0000E+00  0.0000E+00  0.0000E+00  0.0000E+00
     43.131  0.3287E-02  0.1836E-01  0.2893E-02  0.4128E-02  0.0000E+00  0.0000E+00  0.0000E+00  0.0000E+00  0.0000E+00
     43.498  0.5239E-02  0.1598E-01  0.1017E-01  0.4690E-02  0.0000E+00  0.0000E+00  0.0000E+00  0.0000E+00  0.0000E+00
     43.865  0.7485E-02  0.1668E-01  0.9711E-02  0.6154E-02  0.0000E+00  0.0000E+00  0.0000E+00  0.0000E+00  0.0000E+00
     44.233  0.7788E-02  0.2238E-01  0.1833E-01  0.8525E-02  0.0000E+00  0.0000E+00  0.0000E+00  0.0000E+00  0.0000E+00
     44.600  0.4349E-01  0.9387E-02  0.8915E-02  0.6435E-02  0.0000E+00  0.0000E+00  0.0000E+00  0.0000E+00  0.0000E+00
     44.968  0.6397E-01  0.7487E-02  0.8489E-02  0.8089E-02  0.0000E+00  0.0000E+00  0.0000E+00  0.0000E+00  0.0000E+00