    2    2    1    1
  0.1050029E+02  0.3096817E-09  0.3096817E-09  0.3096817E-09  0.5000000E-15
  1.000000000000000E-004
  CAR 
 unknown system                          
      8    240     48
 
  0.0000000E+00  0.0000000E+00  0.0000000E+00  0.4166667E-02
    1       -7.345916
    2        7.941531
    3        7.941531
    4        7.941531
    5       14.002165
    6       15.146884
    7       15.146884
    8       15.146884
    9       22.361977
   10       22.361977
   11       24.193770
   12       25.096730
   13       25.096730
   14       25.096730
   15       31.239277
   16       41.333608
   17       41.333608
   18       41.333609
   19       49.395323
   20       49.395323
   21       49.395323
   22       50.841666
   23       50.841666
   24       54.842696
   25       54.842696
   26       54.842696
   27       66.671176
   28       67.537087
   29       67.537087
   30       67.537087
   31       70.470721
   32       70.470721
   33       70.470721
   34       70.804985
   35       70.804985
   36       76.654790
   37       76.914157
   38       76.914157
   39       77.767344
   40       77.767344
   41       77.767344
   42       79.230323
   43       79.230323
   44       79.230323
   45       79.854664
   46       79.854664
   47       79.854664
   48       80.351511
 
  0.2631579E-01  0.0000000E+00  0.2631579E-01  0.4166667E-02
    1       -7.328058
    2        7.881994
    3        7.905252
    4        7.905252
    5       14.056981
    6       15.097402
    7       15.199339
    8       15.199339
    9       22.074372
   10       22.382158
   11       24.247343
   12       25.132722
   13       25.132722
   14       25.361043
   15       31.357494
   16       41.256101
   17       41.256101
   18       41.317957
   19       49.278018
   20       49.278018
   21       49.328982
   22       50.355085
   23       50.949243
   24       55.051129
   25       55.051129
   26       55.353022
   27       66.231760
   28       67.398171
   29       67.398171
   30       67.784390
   31       70.057923
   32       70.501025
   33       70.501025
   34       70.762792
   35       70.771031
   36       76.349511
   37       76.715100
   38       76.719160
   39       77.256392
   40       77.256392
   41       78.372754
   42       78.465040
   43       78.465040
   44       79.413237
   45       80.023501
   46       80.023501
   47       80.363564
   48       80.514005
 
  0.5263158E-01  0.0000000E+00  0.5263158E-01  0.4166667E-02
    1       -7.274447
    2        7.710700
    3        7.800238
    4        7.800238
    5       14.205259
    6       14.959583
    7       15.352643
    8       15.352643
    9       21.413831
   10       22.442668
   11       24.452865
   12       25.240747
   13       25.240747
   14       25.905408
   15       31.708858
   16       41.026773
   17       41.026774
   18       41.278492
   19       48.983420
   20       48.983420
   21       49.180906
   22       49.291446
   23       51.219148
   24       55.612857
   25       55.612857
   26       56.485942
   27       65.343521
   28       67.011862
   29       67.011862
   30       68.103354
   31       69.262230
   32       70.359176
   33       70.535858
   34       70.535858
   35       70.644974
   36       75.620574
   37       76.097781
   38       76.097781
   39       76.254467
   40       76.965719
   41       77.825218
   42       77.825218
   43       79.380055
   44       79.842694
   45       80.528399
   46       80.528399
   47       80.977429
   48       81.491418
 
  0.7894737E-01  0.0000000E+00  0.7894737E-01  0.4166667E-02
    1       -7.185314
    2        7.445834
    3        7.636672
    4        7.636672
    5       14.369921
    6       14.794118
    7       15.595847
    8       15.595847
    9       20.635691
   10       22.543394
   11       24.809856
   12       25.420618
   13       25.420618
   14       26.478669
   15       32.276547
   16       40.650670
   17       40.650670
   18       41.224622
   19       48.045689
   20       48.617312
   21       48.617312
   22       49.023685
   23       51.567901
   24       56.398817
   25       56.398817
   26       57.839816
   27       64.209924
   28       66.425465
   29       66.425466
   30       68.105450
   31       68.519774
   32       69.626328
   33       70.451571
   34       70.451571
   35       70.474399
   36       75.004006
   37       75.004006
   38       75.031647
   39       75.702080
   40       77.349460
   41       77.349460
   42       77.417102
   43       80.403513
   44       80.483778
   45       81.067873
   46       81.067873
   47       81.668483
   48       82.562394
 
  0.1052632E+00  0.0000000E+00  0.1052632E+00  0.4166667E-02
    1       -7.060795
    2        7.108860
    3        7.428179
    4        7.428179
    5       14.272096
    6       14.851348
    7       15.914261
    8       15.914261
    9       19.874806
   10       22.684183
   11       25.290933
   12       25.672362
   13       25.672362
   14       27.001851
   15       33.018907
   16       40.146072
   17       40.146072
   18       41.184418
   19       46.752926
   20       48.258565
   21       48.258565
   22       48.897197
   23       51.940816
   24       57.286346
   25       57.286346
   26       59.267169
   27       62.898543
   28       65.682054
   29       65.682054
   30       67.148840
   31       68.402225
   32       68.916767
   33       70.167808
   34       70.167809
   35       70.287018
   36       74.233353
   37       74.233353
   38       74.580873
   39       75.137498
   40       76.947545
   41       76.947545
   42       78.009009
   43       81.076001
   44       81.281718
   45       81.405494
   46       81.405494
   47       82.508674
   48       83.000069
 
  0.1315789E+00  0.0000000E+00  0.1315789E+00  0.4166667E-02
    1       -6.901315
    2        6.718727
    3        7.188909
    4        7.188910
    5       13.945407
    6       15.049406
    7       16.292281
    8       16.292281
    9       19.224819
   10       22.864757
   11       25.871694
   12       25.995180
   13       25.995180
   14       27.468487
   15       33.866150
   16       39.532185
   17       39.532185
   18       41.194584
   19       45.458776
   20       47.939503
   21       47.939504
   22       48.817340
   23       52.295198
   24       58.155663
   25       58.155663
   26       60.698568
   27       61.465420
   28       64.826199
   29       64.826199
   30       66.042564
   31       67.680445
   32       68.830851
   33       69.744117
   34       69.744117
   35       70.124170
   36       73.763005
   37       73.763005
   38       74.221776
   39       74.593969
   40       76.588461
   41       76.588461
   42       78.674185
   43       81.104484
   44       81.380972
   45       81.380972
   46       81.855549
   47       83.424494
   48       83.448914
 
  0.1578947E+00  0.0000000E+00  0.1578947E+00  0.4166667E-02
    1       -6.707309
    2        6.289731
    3        6.931689
    4        6.931690
    5       13.549225
    6       15.154937
    7       16.715478
    8       16.715478
    9       18.783634
   10       23.084743
   11       26.387814
   12       26.387815
   13       26.530911
   14       27.896485
   15       34.726890
   16       38.837608
   17       38.837609
   18       41.316376
   19       44.182540
   20       47.667464
   21       47.667464
   22       48.789086
   23       52.589490
   24       58.844513
   25       58.844513
   26       59.966058
   27       62.073042
   28       63.977268
   29       63.977268
   30       64.937002
   31       66.813532
   32       68.886333
   33       69.352390
   34       69.352390
   35       70.039838
   36       73.449227
   37       73.449227
   38       73.919096
   39       74.092179
   40       76.234192
   41       76.234192
   42       79.306798
   43       80.472307
   44       81.266261
   45       81.266261
   46       82.734215
   47       83.358805
   48       84.465108
 
  0.1842105E+00  0.0000000E+00  0.1842105E+00  0.4166667E-02
    1       -6.479443
    2        5.831597
    3        6.667274
    4        6.667274
    5       13.115742
    6       15.067958
    7       17.171295
    8       17.171295
    9       18.633588
   10       23.343616
   11       26.847611
   12       26.847611
   13       27.247358
   14       28.308668
   15       35.496983
   16       38.089587
   17       38.089588
   18       41.627507
   19       42.933937
   20       47.430744
   21       47.430744
   22       48.810545
   23       52.775038
   24       58.442618
   25       59.090045
   26       59.090045
   27       63.310398
   28       63.369868
   29       63.369868
   30       63.907534
   31       65.965125
   32       68.934790
   33       69.136642
   34       69.136642
   35       70.103299
   36       73.178551
   37       73.178551
   38       73.639272
   39       73.654186
   40       75.847169
   41       75.847169
   42       79.263805
   43       80.397443
   44       81.322571
   45       81.322571
   46       83.030653
   47       83.702589
   48       85.546743
 
  0.2105263E+00  0.0000000E+00  0.2105263E+00  0.4166667E-02
    1       -6.218503
    2        5.350549
    3        6.404283
    4        6.404283
    5       12.658451
    6       14.792852
    7       17.649290
    8       17.649290
    9       18.766392
   10       23.640654
   11       27.370002
   12       27.370002
   13       27.988996
   14       28.735631
   15       36.089995
   16       37.315616
   17       37.315616
   18       41.718820
   19       42.198905
   20       47.210715
   21       47.210715
   22       48.875592
   23       52.795172
   24       56.938860
   25       58.677990
   26       58.677990
   27       63.026166
   28       63.194874
   29       63.194874
   30       64.306340
   31       65.153701
   32       68.973073
   33       69.187115
   34       69.187115
   35       70.382804
   36       72.908656
   37       72.908656
   38       73.324653
   39       73.358004
   40       75.425855
   41       75.425855
   42       78.537624
   43       80.824027
   44       81.615431
   45       81.615431
   46       82.830960
   47       84.752226
   48       86.549063
 
  0.2368421E+00  0.0000000E+00  0.2368421E+00  0.4166667E-02
    1       -5.925573
    2        4.850447
    3        6.149478
    4        6.149478
    5       12.188464
    6       14.415786
    7       18.140725
    8       18.140725
    9       19.090734
   10       23.974849
   11       27.947162
   12       27.947162
   13       28.670658
   14       29.255115
   15       36.481838
   16       36.541814
   17       36.541814
   18       40.541328
   19       43.039201
   20       46.984319
   21       46.984319
   22       48.973461
   23       52.593641
   24       55.498118
   25       57.773267
   26       57.773267
   27       62.345099
   28       63.276753
   29       63.276753
   30       64.395525
   31       64.977248
   32       69.004619
   33       69.537131
   34       69.537131
   35       70.840543
   36       72.639706
   37       72.639706
   38       73.052561
   39       73.230982
   40       75.008612
   41       75.008612
   42       77.771893
   43       80.806924
   44       82.119858
   45       82.119858
   46       83.084072
   47       85.876153
   48       87.610283
 
  0.2631579E+00  0.0000000E+00  0.2631579E+00  0.4166667E-02
    1       -5.602009
    2        4.333899
    3        5.908117
    4        5.908117
    5       11.718161
    6       14.016513
    7       18.638018
    8       18.638018
    9       19.517749
   10       24.344766
   11       28.565495
   12       28.565495
   13       29.170507
   14       29.975730
   15       35.795363
   16       35.795363
   17       36.724203
   18       39.404669
   19       44.073037
   20       46.724336
   21       46.724336
   22       49.085869
   23       52.137440
   24       54.185601
   25       56.673972
   26       56.673972
   27       61.870837
   28       63.357218
   29       63.357218
   30       63.726605
   31       65.333436
   32       69.033728
   33       70.121373
   34       70.121374
   35       71.175152
   36       72.399471
   37       72.399471
   38       72.700787
   39       73.667305
   40       74.663827
   41       74.663828
   42       77.058345
   43       80.271425
   44       82.787242
   45       82.787242
   46       83.674651
   47       87.068660
   48       88.055711
 
  0.2894737E+00  0.0000000E+00  0.2894737E+00  0.4166667E-02
    1       -5.249603
    2        3.803217
    3        5.684286
    4        5.684286
    5       11.261560
    6       13.638411
    7       19.134356
    8       19.134356
    9       19.989823
   10       24.748380
   11       29.200968
   12       29.200968
   13       29.537419
   14       30.829706
   15       35.111278
   16       35.111278
   17       36.899519
   18       38.312845
   19       45.152395
   20       46.402190
   21       46.402190
   22       49.175373
   23       51.465629
   24       53.090880
   25       55.560187
   26       55.560187
   27       61.528101
   28       63.221501
   29       63.352876
   30       63.352876
   31       65.468180
   32       69.056930
   33       70.712082
   34       70.712082
   35       71.181980
   36       72.266651
   37       72.266651
   38       72.276986
   39       74.512339
   40       74.512339
   41       74.748587
   42       76.428602
   43       79.393928
   44       83.573745
   45       83.573745
   46       84.104966
   47       87.433149
   48       88.324738
 
  0.3157895E+00  0.0000000E+00  0.3157895E+00  0.4166667E-02
    1       -4.870833
    2        3.261320
    3        5.481135
    4        5.481136
    5       10.832778
    6       13.299975
    7       19.622610
    8       19.622610
    9       20.472096
   10       25.182626
   11       29.807471
   12       29.807471
   13       29.827360
   14       31.739479
   15       34.542338
   16       34.542338
   17       37.085047
   18       37.269665
   19       45.986639
   20       45.986640
   21       46.019340
   22       49.140337
   23       50.819826
   24       52.318474
   25       54.530406
   26       54.530406
   27       61.177658
   28       62.988149
   29       63.276561
   30       63.276562
   31       65.476244
   32       69.072770
   33       70.957691
   34       70.957691
   35       71.025033
   36       71.757281
   37       72.317072
   38       72.317072
   39       74.771818
   40       74.771819
   41       75.901802
   42       76.216199
   43       78.230368
   44       83.936451
   45       84.442546
   46       84.442546
   47       87.600097
   48       89.639403
 
  0.3421053E+00  0.0000000E+00  0.3421053E+00  0.4166667E-02
    1       -4.469214
    2        2.712543
    3        5.301110
    4        5.301110
    5       10.444161
    6       13.007392
    7       20.094652
    8       20.094652
    9       20.940513
   10       25.642815
   11       30.046216
   12       30.298745
   13       30.298746
   14       32.678370
   15       34.179187
   16       34.179187
   17       36.280469
   18       37.336114
   19       45.453129
   20       45.453129
   21       46.267128
   22       48.759841
   23       50.662016
   24       52.041403
   25       53.644548
   26       53.644548
   27       60.759691
   28       63.047413
   29       63.160708
   30       63.160708
   31       65.421699
   32       69.072681
   33       70.829948
   34       70.861283
   35       70.861283
   36       71.121860
   37       72.353314
   38       72.353314
   39       75.485071
   40       75.585433
   41       75.585433
   42       76.850826
   43       77.880941
   44       83.411349
   45       85.363698
   46       85.363698
   47       88.461450
   48       91.006567
 
  0.3684211E+00  0.0000000E+00  0.3684211E+00  0.4166667E-02
    1       -4.049982
    2        2.163551
    3        5.146092
    4        5.146093
    5       10.105264
    6       12.761792
    7       20.540255
    8       20.540255
    9       21.376485
   10       26.121432
   11       30.192415
   12       30.554369
   13       30.554369
   14       33.633612
   15       34.143686
   16       34.143686
   17       35.353529
   18       37.682191
   19       44.794551
   20       44.794551
   21       45.760418
   22       48.041997
   23       50.875117
   24       52.509932
   25       52.933266
   26       52.933266
   27       60.346974
   28       63.031286
   29       63.031286
   30       63.302127
   31       65.342074
   32       69.018320
   33       70.371198
   34       70.642199
   35       70.653253
   36       70.653253
   37       72.278331
   38       72.278331
   39       75.155491
   40       75.410446
   41       76.773329
   42       76.773329
   43       79.657371
   44       82.900861
   45       86.295862
   46       86.295862
   47       89.613739
   48       92.412339
 
  0.3947368E+00  0.0000000E+00  0.3947368E+00  0.4166667E-02
    1       -3.621663
    2        1.624753
    3        5.017527
    4        5.017527
    5        9.822618
    6       12.562579
    7       20.946254
    8       20.946254
    9       21.763401
   10       26.605971
   11       30.271742
   12       30.531988
   13       30.531988
   14       34.474902
   15       34.474902
   16       34.501680
   17       34.593820
   18       38.123829
   19       44.032281
   20       44.032281
   21       44.850857
   22       47.169547
   23       51.084978
   24       52.399988
   25       52.399989
   26       53.545945
   27       60.048330
   28       62.907055
   29       62.907055
   30       63.653592
   31       65.259068
   32       68.708331
   33       69.667604
   34       70.435869
   35       70.435869
   36       70.478993
   37       72.165832
   38       72.165832
   39       74.009472
   40       74.964818
   41       78.120474
   42       78.120474
   43       81.505526
   44       82.494368
   45       87.191717
   46       87.191717
   47       90.898894
   48       92.872028
 
  0.4210526E+00  0.0000000E+00  0.4210526E+00  0.4166667E-02
    1       -3.199283
    2        1.113407
    3        4.916504
    4        4.916504
    5        9.600287
    6       12.408794
    7       21.295805
    8       21.295805
    9       22.086253
   10       27.074820
   11       30.299751
   12       30.341672
   13       30.341672
   14       33.746852
   15       35.049032
   16       35.049032
   17       35.541074
   18       38.626479
   19       43.219505
   20       43.219505
   21       43.842588
   22       46.262982
   23       51.279343
   24       52.026708
   25       52.026708
   26       54.680320
   27       60.000317
   28       62.800399
   29       62.800399
   30       64.029826
   31       65.185394
   32       67.735768
   33       69.402192
   34       70.246463
   35       70.246463
   36       70.347841
   37       72.060640
   38       72.060640
   39       72.874953
   40       74.813598
   41       79.496542
   42       79.496542
   43       82.198329
   44       83.404136
   45       87.962098
   46       87.962098
   47       92.139547
   48       92.140194
 
  0.4473684E+00  0.0000000E+00  0.4473684E+00  0.4166667E-02
    1       -2.811687
    2        0.660359
    3        4.843803
    4        4.843803
    5        9.440472
    6       12.299520
    7       21.568515
    8       21.568515
    9       22.329196
   10       27.490347
   11       30.120426
   12       30.120426
   13       30.297643
   14       33.126870
   15       35.688956
   16       35.688956
   17       36.434903
   18       39.106804
   19       42.444170
   20       42.444170
   21       42.915634
   22       45.425822
   23       51.448116
   24       51.784415
   25       51.784415
   26       55.568208
   27       60.373059
   28       62.718717
   29       62.718717
   30       64.366215
   31       65.128255
   32       66.378631
   33       69.334083
   34       70.102145
   35       70.102145
   36       70.252343
   37       71.979626
   38       71.979626
   39       72.048512
   40       74.719201
   41       80.770415
   42       80.770415
   43       81.985014
   44       85.336062
   45       88.427584
   46       88.427584
   47       91.343758
   48       91.343758
 
  0.4736842E+00  0.0000000E+00  0.4736842E+00  0.4166667E-02
    1       -2.515184
    2        0.323790
    3        4.799977
    4        4.799978
    5        9.344296
    6       12.234204
    7       21.743498
    8       21.743498
    9       22.480642
   10       27.791721
   11       29.957022
   12       29.957022
   13       30.286368
   14       32.702761
   15       36.214837
   16       36.214837
   17       37.168423
   18       39.422147
   19       41.845798
   20       41.845798
   21       42.252102
   22       44.790246
   23       51.564581
   24       51.650316
   25       51.650316
   26       56.043170
   27       61.182273
   28       62.667911
   29       62.667911
   30       64.591041
   31       64.995287
   32       65.092601
   33       69.307574
   34       70.012510
   35       70.012510
   36       70.194470
   37       71.550449
   38       71.929428
   39       71.929428
   40       74.667885
   41       81.757558
   42       81.757558
   43       81.859573
   44       87.292104
   45       88.416098
   46       88.416098
   47       90.973958
   48       90.974004
 
  0.5000000E+00  0.0000000E+00  0.5000000E+00  0.4166667E-02
    1       -2.398302
    2        0.193334
    3        4.785326
    4        4.785326
    5        9.312188
    6       12.212462
    7       21.803734
    8       21.803734
    9       22.531607
   10       27.904726
   11       29.897579
   12       29.897579
   13       30.280780
   14       32.548726
   15       36.426291
   16       36.426291
   17       37.485767
   18       39.500258
   19       41.610649
   20       41.610649
   21       42.020379
   22       44.540644
   23       51.605662
   24       51.605662
   25       51.606110
   26       56.175070
   27       61.797987
   28       62.650318
   29       62.650318
   30       64.166003
   31       64.710584
   32       65.079895
   33       69.294088
   34       69.980916
   35       69.980916
   36       70.174990
   37       71.383432
   38       71.911884
   39       71.911884
   40       74.651566
   41       81.809416
   42       82.151144
   43       82.151144
   44       88.278107
   45       88.278107
   46       89.223472
   47       89.303451
   48       90.922382
 
  0.5000000E+00  0.0000000E+00  0.5000000E+00  0.4166667E-02
    1       -2.398302
    2        0.193334
    3        4.785326
    4        4.785326
    5        9.312188
    6       12.212462
    7       21.803734
    8       21.803734
    9       22.531607
   10       27.904726
   11       29.897579
   12       29.897579
   13       30.280780
   14       32.548726
   15       36.426291
   16       36.426291
   17       37.485767
   18       39.500258
   19       41.610649
   20       41.610649
   21       42.020379
   22       44.540644
   23       51.605662
   24       51.605662
   25       51.606110
   26       56.175070
   27       61.797987
   28       62.650318
   29       62.650318
   30       64.166003
   31       64.710584
   32       65.079895
   33       69.294088
   34       69.980916
   35       69.980916
   36       70.174990
   37       71.383432
   38       71.911884
   39       71.911884
   40       74.651566
   41       81.809416
   42       82.151144
   43       82.151144
   44       88.278107
   45       88.278107
   46       89.223472
   47       89.303451
   48       90.922382
 
  0.5065789E+00  0.1315789E-01  0.5065789E+00  0.4166667E-02
    1       -2.397606
    2        0.195115
    3        4.770304
    4        4.787014
    5        9.324035
    6       12.223102
    7       21.795594
    8       21.798206
    9       22.524279
   10       27.869818
   11       29.864743
   12       29.926274
   13       30.327450
   14       32.561334
   15       36.364292
   16       36.435954
   17       37.536205
   18       39.482813
   19       41.543294
   20       41.617019
   21       42.111361
   22       44.554290
   23       51.353817
   24       51.605677
   25       51.822804
   26       56.190519
   27       61.759943
   28       62.648790
   29       62.676559
   30       64.165456
   31       64.733244
   32       65.032157
   33       69.207290
   34       69.535522
   35       69.957296
   36       70.640768
   37       71.346039
   38       71.952068
   39       72.021186
   40       74.716509
   41       81.729202
   42       82.128637
   43       82.228258
   44       88.225186
   45       88.286584
   46       89.197596
   47       89.343228
   48       90.912077
 
  0.5131579E+00  0.2631579E-01  0.5131579E+00  0.4166667E-02
    1       -2.395501
    2        0.200465
    3        4.725979
    4        4.792082
    5        9.358794
    6       12.255092
    7       21.771463
    8       21.781940
    9       22.502653
   10       27.771066
   11       29.794646
   12       30.006497
   13       30.438970
   14       32.599053
   15       36.205889
   16       36.465238
   17       37.659747
   18       39.430502
   19       41.426750
   20       41.636152
   21       42.298671
   22       44.595786
   23       51.074965
   24       51.606820
   25       51.998487
   26       56.236479
   27       61.664054
   28       62.643575
   29       62.740349
   30       64.162992
   31       64.797875
   32       64.891155
   33       68.967569
   34       69.045332
   35       69.894254
   36       71.170200
   37       71.308329
   38       72.094963
   39       72.256162
   40       74.906837
   41       81.575812
   42       82.063074
   43       82.377979
   44       88.085046
   45       88.316454
   46       89.123435
   47       89.453297
   48       90.884983
 
  0.5197368E+00  0.3947368E-01  0.5197368E+00  0.4166667E-02
    1       -2.392118
    2        0.209324
    3        4.654407
    4        4.800513
    5        9.414242
    6       12.308590
    7       21.731316
    8       21.754598
    9       22.466518
   10       27.622007
   11       29.718402
   12       30.124543
   13       30.583423
   14       32.661272
   15       35.992875
   16       36.513642
   17       37.811870
   18       39.344491
   19       41.327415
   20       41.668065
   21       42.514508
   22       44.666639
   23       50.774604
   24       51.606811
   25       52.125427
   26       56.309733
   27       61.543397
   28       62.632247
   29       62.815518
   30       64.156037
   31       64.662034
   32       64.893183
   33       68.600668
   34       68.619750
   35       69.803051
   36       71.320596
   37       71.591254
   38       72.415188
   39       72.522871
   40       75.207898
   41       81.401865
   42       81.954614
   43       82.538349
   44       87.882926
   45       88.356799
   46       89.007090
   47       89.606635
   48       90.836850
 
  0.5263158E+00  0.5263158E-01  0.5263158E+00  0.4166667E-02
    1       -2.387519
    2        0.221665
    3        4.558680
    4        4.812300
    5        9.487143
    6       12.383828
    7       21.675879
    8       21.716763
    9       22.416649
   10       27.436994
   11       29.647902
   12       30.266293
   13       30.748081
   14       32.747193
   15       35.751259
   16       36.581542
   17       37.962776
   18       39.230266
   19       41.261862
   20       41.712829
   21       42.737983
   22       44.769051
   23       50.460598
   24       51.606744
   25       52.200848
   26       56.406233
   27       61.424873
   28       62.609351
   29       62.887420
   30       64.140834
   31       64.358624
   32       65.000525
   33       68.206765
   34       68.219748
   35       69.698468
   36       71.379083
   37       71.865957
   38       72.790745
   39       72.938822
   40       75.597837
   41       81.224135
   42       81.808186
   43       82.700348
   44       87.642245
   45       88.410573
   46       88.858453
   47       89.790216
   48       90.777171
 
  0.5328947E+00  0.6578947E-01  0.5328947E+00  0.4166667E-02
    1       -2.381845
    2        0.237422
    3        4.442463
    4        4.827430
    5        9.573735
    6       12.480990
    7       21.605874
    8       21.668847
    9       22.353737
   10       27.227340
   11       29.587011
   12       30.420713
   13       30.927767
   14       32.855579
   15       35.493819
   16       36.669043
   17       38.090585
   18       39.101417
   19       41.231131
   20       41.770524
   21       42.960098
   22       44.905249
   23       50.139216
   24       51.606547
   25       52.223520
   26       56.519665
   27       61.326806
   28       62.562265
   29       62.950963
   30       64.005462
   31       64.110989
   32       65.094039
   33       67.816661
   34       67.861081
   35       69.592204
   36       71.472506
   37       72.078809
   38       73.053177
   39       73.571446
   40       76.051751
   41       81.048274
   42       81.628152
   43       82.861609
   44       87.375569
   45       88.475063
   46       88.682881
   47       89.995645
   48       90.712627
 
  0.5394737E+00  0.7894737E-01  0.5394737E+00  0.4166667E-02
    1       -2.375274
    2        0.256514
    3        4.309620
    4        4.845882
    5        9.670227
    6       12.600122
    7       21.522167
    8       21.611348
    9       22.278810
   10       27.001033
   11       29.536888
   12       30.580300
   13       31.119690
   14       32.984816
   15       35.227346
   16       36.776234
   17       38.168684
   18       38.984984
   19       41.229346
   20       41.841254
   21       43.176614
   22       45.076648
   23       49.816224
   24       51.606120
   25       52.194654
   26       56.642887
   27       61.261874
   28       62.461529
   29       63.006102