       N       E                     dE             d eps       ncg     rms          rms(c)
DAV:   1    -0.121118289726E+02   -0.12112E+02   -0.43244E+03 27696   0.150E+02
DAV:   2    -0.135074418619E+02   -0.13956E+01   -0.13956E+01 35424   0.819E+00
DAV:   3    -0.135076463557E+02   -0.20449E-03   -0.20449E-03 24384   0.109E-01
DAV:   4    -0.135076463710E+02   -0.15296E-07   -0.15296E-07 44016   0.797E-04
DAV:   5    -0.135076463710E+02   -0.11369E-12    0.10291E-12 24048   0.229E-07
DAV:   6    -0.135076463710E+02   -0.22737E-12   -0.14880E-12 43344   0.285E-09
   1 F= -.13507646E+02 E0= -.13507646E+02  d E =-.245742E-22
