 vasp.5.3.5 31Mar14 (build Oct 01 2015 16:19:09) complex                        
  
 executed on             LinuxIFC date 2023.05.07  18:19:59
 running on   48 total cores
 distrk:  each k-point on   48 cores,    1 groups
 distr:  one band on NCORES_PER_BAND=   1 cores,   48 groups


--------------------------------------------------------------------------------------------------------


 INCAR:
 POTCAR:    PAW_PBE Si 05Jan2001                  
 POTCAR:    PAW_PBE C 08Apr2002                   

 ----------------------------------------------------------------------------- 
|                                                                             |
|           W    W    AA    RRRRR   N    N  II  N    N   GGGG   !!!           |
|           W    W   A  A   R    R  NN   N  II  NN   N  G    G  !!!           |
|           W    W  A    A  R    R  N N  N  II  N N  N  G       !!!           |
|           W WW W  AAAAAA  RRRRR   N  N N  II  N  N N  G  GGG   !            |
|           WW  WW  A    A  R   R   N   NN  II  N   NN  G    G                |
|           W    W  A    A  R    R  N    N  II  N    N   GGGG   !!!           |
|                                                                             |
|      For optimal performance we recommend to set                            |
|        NCORE= 4 - approx SQRT( number of cores)                             |
|      NCORE specifies how many cores store one orbital (NPAR=cpu/NCORE).     |
|      This setting can  greatly improve the performance of VASP for DFT.     |
|      The default, NPAR=number of cores might be grossly inefficient         |
|      on modern multi-core architectures or massively parallel machines.     |
|      Do your own testing !!!!                                               |
|      Unfortunately you need to use the default for GW and RPA calculations. |
|      (for HF NCORE is supported but not extensively tested yet)             |
|                                                                             |
 ----------------------------------------------------------------------------- 

 POTCAR:    PAW_PBE Si 05Jan2001                  
   VRHFIN =Si: s2p2                                                             
   LEXCH  = PE                                                                  
   EATOM  =   103.0669 eV,    7.5752 Ry                                         
                                                                                
   TITEL  = PAW_PBE Si 05Jan2001                                                
   LULTRA =        F    use ultrasoft PP ?                                      
   IUNSCR =        1    unscreen: 0-lin 1-nonlin 2-no                           
   RPACOR =    1.500    partial core radius                                     
   POMASS =   28.085; ZVAL   =    4.000    mass and valenz                      
   RCORE  =    1.900    outmost cutoff radius                                   
   RWIGS  =    2.480; RWIGS  =    1.312    wigner-seitz radius (au A)           
   ENMAX  =  245.345; ENMIN  =  184.009 eV                                      
   ICORE  =        2    local potential                                         
   LCOR   =        T    correct aug charges                                     
   LPAW   =        T    paw PP                                                  
   EAUG   =  322.069                                                            
   DEXC   =    0.000                                                            
   RMAX   =    1.950    core radius for proj-oper                               
   RAUG   =    1.300    factor for augmentation sphere                          
   RDEP   =    1.993    radius for radial grids                                 
   RDEPT  =    1.837    core radius for aug-charge                              
                                                                                
   Atomic configuration                                                         
    6 entries                                                                   
     n  l   j            E        occ.                                          
     1  0  0.50     -1785.8828   2.0000                                         
     2  0  0.50      -139.4969   2.0000                                         
     2  1  1.50       -95.5546   6.0000                                         
     3  0  0.50       -10.8127   2.0000                                         
     3  1  0.50        -4.0811   2.0000                                         
     3  2  1.50        -4.0817   0.0000                                         
   Description                                                                  
     l       E           TYP  RCUT    TYP  RCUT                                 
     0    -10.8127223     23  1.900                                             
     0     -7.6451159     23  1.900                                             
     1     -4.0811372     23  1.900                                             
     1      2.4879257     23  1.900                                             
     2     -4.0817478      7  1.900                                             
  local pseudopotential read in
  partial core-charges read in
  partial kinetic energy density read in
  atomic valenz-charges read in
  non local Contribution for L=           0  read in
    real space projection operators read in
  non local Contribution for L=           0  read in
    real space projection operators read in
  non local Contribution for L=           1  read in
    real space projection operators read in
  non local Contribution for L=           1  read in
    real space projection operators read in
    PAW grid and wavefunctions read in
 
   number of l-projection  operators is LMAX  =           4
   number of lm-projection operators is LMMAX =           8
 
 POTCAR:    PAW_PBE C 08Apr2002                   
   VRHFIN =C: s2p2                                                              
   LEXCH  = PE                                                                  
   EATOM  =   147.1560 eV,   10.8157 Ry                                         
                                                                                
   TITEL  = PAW_PBE C 08Apr2002                                                 
   LULTRA =        F    use ultrasoft PP ?                                      
   IUNSCR =        1    unscreen: 0-lin 1-nonlin 2-no                           
   RPACOR =    1.200    partial core radius                                     
   POMASS =   12.011; ZVAL   =    4.000    mass and valenz                      
   RCORE  =    1.500    outmost cutoff radius                                   
   RWIGS  =    1.630; RWIGS  =    0.863    wigner-seitz radius (au A)           
   ENMAX  =  400.000; ENMIN  =  300.000 eV                                      
   ICORE  =        2    local potential                                         
   LCOR   =        T    correct aug charges                                     
   LPAW   =        T    paw PP                                                  
   EAUG   =  644.873                                                            
   DEXC   =    0.000                                                            
   RMAX   =    1.529    core radius for proj-oper                               
   RAUG   =    1.300    factor for augmentation sphere                          
   RDEP   =    1.501    radius for radial grids                                 
   RDEPT  =    1.300    core radius for aug-charge                              
                                                                                
   Atomic configuration                                                         
    4 entries                                                                   
     n  l   j            E        occ.                                          
     1  0  0.50      -273.3789   2.0000                                         
     2  0  0.50       -13.7508   2.0000                                         
     2  1  0.50        -5.2854   2.0000                                         
     3  2  1.50        -5.4423   0.0000                                         
   Description                                                                  
     l       E           TYP  RCUT    TYP  RCUT                                 
     0    -13.7508458     23  1.200                                             
     0     -8.2022199     23  1.200                                             
     1     -5.2854383     23  1.500                                             
     1     34.0145650     23  1.500                                             
     2     -5.4423304      7  1.500                                             
  local pseudopotential read in
  partial core-charges read in
  partial kinetic energy density read in
  atomic valenz-charges read in
  non local Contribution for L=           0  read in
    real space projection operators read in
  non local Contribution for L=           0  read in
    real space projection operators read in
  non local Contribution for L=           1  read in
    real space projection operators read in
  non local Contribution for L=           1  read in
    real space projection operators read in
    PAW grid and wavefunctions read in
 
   number of l-projection  operators is LMAX  =           4
   number of lm-projection operators is LMMAX =           8
 
  PAW_PBE Si 05Jan2001                  :
 energy of atom  1       EATOM= -103.0669
 kinetic energy error for atom=    0.0005 (will be added to EATOM!!)
  PAW_PBE C 08Apr2002                   :
 energy of atom  2       EATOM= -147.1560
 kinetic energy error for atom=    0.0071 (will be added to EATOM!!)
 
 
 POSCAR: Si4 C4                                  
  positions in direct lattice
  velocities in cartesian coordinates
 exchange correlation table for  LEXCH =        8
   RHO(1)=    0.500       N(1)  =     2000
   RHO(2)=  100.500       N(2)  =     4000
 


--------------------------------------------------------------------------------------------------------


 ion  position               nearest neighbor table
   1  0.250  0.250  0.250-   2 1.90   2 1.90   2 1.90   2 1.90
   2  0.000  0.000  0.000-   1 1.90   1 1.90   1 1.90   1 1.90
 
  LATTYP: Found a face centered cubic cell.
 ALAT       =     4.3795600000
  
  Lattice vectors:
  
 A1 = (   0.0000000000,   2.1897800000,   2.1897800000)
 A2 = (   2.1897800000,   0.0000000000,   2.1897800000)
 A3 = (   2.1897800000,   2.1897800000,   0.0000000000)


Analysis of symmetry for initial positions (statically):
=====================================================================
 Subroutine PRICEL returns:
 Original cell was already a primitive cell.
 

 Routine SETGRP: Setting up the symmetry group for a 
 face centered cubic supercell.


 Subroutine GETGRP returns: Found 24 space group operations
 (whereof 24 operations were pure point group operations)
 out of a pool of 48 trial point group operations.


The static configuration has the point symmetry T_d .


Analysis of symmetry for dynamics (positions and initial velocities):
=====================================================================
 Subroutine PRICEL returns:
 Original cell was already a primitive cell.
 

 Routine SETGRP: Setting up the symmetry group for a 
 face centered cubic supercell.


 Subroutine GETGRP returns: Found 24 space group operations
 (whereof 24 operations were pure point group operations)
 out of a pool of 48 trial point group operations.


The dynamic configuration has the point symmetry T_d .
 
 
 KPOINTS: K-Path Generated by VASPMATE            
  interpolating k-points between supplied coordinates
  k-points in reciprocal lattice
Space group operators:
 irot       det(A)        alpha          n_x          n_y          n_z        tau_x        tau_y        tau_z
    1     1.000000     0.000000     1.000000     0.000000     0.000000     0.000000     0.000000     0.000000
    2     1.000000   120.000000    -0.577350    -0.577350    -0.577350     0.000000     0.000000     0.000000
    3     1.000000   120.000000     0.577350     0.577350     0.577350     0.000000     0.000000     0.000000
    4    -1.000000    90.000000     0.000000     0.000000    -1.000000     0.000000     0.000000     0.000000
    5    -1.000000   180.000000     0.000000     0.707107     0.707107     0.000000     0.000000     0.000000
    6    -1.000000    90.000000     0.000000     1.000000     0.000000     0.000000     0.000000     0.000000
    7     1.000000   179.999999     0.000000     0.000000     1.000000     0.000000     0.000000     0.000000
    8     1.000000   120.000000    -0.577350     0.577350     0.577350     0.000000     0.000000     0.000000
    9     1.000000   120.000000    -0.577350     0.577350    -0.577350     0.000000     0.000000     0.000000
   10    -1.000000    90.000000     0.000000     0.000000     1.000000     0.000000     0.000000     0.000000
   11    -1.000000    90.000000    -1.000000     0.000000     0.000000     0.000000     0.000000     0.000000
   12    -1.000000   180.000000     0.707107     0.000000     0.707107     0.000000     0.000000     0.000000
   13     1.000000   120.000000     0.577350    -0.577350     0.577350     0.000000     0.000000     0.000000
   14     1.000000   120.000000    -0.577350    -0.577350     0.577350     0.000000     0.000000     0.000000
   15     1.000000   180.000000     1.000000     0.000000     0.000000     0.000000     0.000000     0.000000
   16    -1.000000    90.000000     0.000000    -1.000000     0.000000     0.000000     0.000000     0.000000
   17    -1.000000   180.000000     0.707107     0.707107     0.000000     0.000000     0.000000     0.000000
   18    -1.000000    90.000000     1.000000     0.000000     0.000000     0.000000     0.000000     0.000000
   19     1.000000   120.000000     0.577350    -0.577350    -0.577350     0.000000     0.000000     0.000000
   20     1.000000   180.000000     0.000000     1.000000     0.000000     0.000000     0.000000     0.000000
   21     1.000000   120.000000     0.577350     0.577350    -0.577350     0.000000     0.000000     0.000000
   22    -1.000000   180.000000     0.000000    -0.707107     0.707107     0.000000     0.000000     0.000000
   23    -1.000000   180.000000     0.707107    -0.707107     0.000000     0.000000     0.000000     0.000000
   24    -1.000000   180.000000     0.707107     0.000000    -0.707107     0.000000     0.000000     0.000000


--------------------------------------------------------------------------------------------------------




 Dimension of arrays:
   k-points           NKPTS =    240   k-points in BZ     NKDIM =    240   number of bands    NBANDS=     48
   number of dos      NEDOS =    301   number of ions     NIONS =      2
   non local maximal  LDIM  =      4   non local SUM 2l+1 LMDIM =      8
   total plane-waves  NPLWV =  13824
   max r-space proj   IRMAX =      1   max aug-charges    IRDMAX= 176252
   dimension x,y,z NGX =    24 NGY =   24 NGZ =   24
   dimension x,y,z NGXF=    48 NGYF=   48 NGZF=   48
   support grid    NGXF=    96 NGYF=   96 NGZF=   96
   ions per type =               1   1
 NGX,Y,Z   is equivalent  to a cutoff of  12.88, 12.88, 12.88 a.u.
 NGXF,Y,Z  is equivalent  to a cutoff of  25.77, 25.77, 25.77 a.u.


 I would recommend the setting:
   dimension x,y,z NGX =    23 NGY =   23 NGZ =   23
 SYSTEM =  unknown system                          
 POSCAR =  Si4 C4                                  

 Startparameter for this run:
   NWRITE =      2    write-flag & timer
   PREC   = accura    normal or accurate (medium, high low for compatibility)
   ISTART =      0    job   : 0-new  1-cont  2-samecut
   ICHARG =     11    charge: 1-file 2-atom 10-const
   ISPIN  =      1    spin polarized calculation?
   LNONCOLLINEAR =      F non collinear calculations
   LSORBIT =      F    spin-orbit coupling
   INIWAV =      1    electr: 0-lowe 1-rand  2-diag
   LASPH  =      F    aspherical Exc in radial PAW
   METAGGA=      F    non-selfconsistent MetaGGA calc.

 Electronic Relaxation 1
   ENCUT  =  520.0 eV  38.22 Ry    6.18 a.u.   5.76  5.76  5.76*2*pi/ulx,y,z
   ENINI  =  520.0     initial cutoff
   ENAUG  =  644.9 eV  augmentation charge cutoff
   NELM   =     60;   NELMIN=  2; NELMDL=  0     # of ELM steps 
   EDIFF  = 0.1E-05   stopping-criterion for ELM
   LREAL  =      F    real-space projection
   NLSPLINE    = F    spline interpolate recip. space projectors
   LCOMPAT=      F    compatible to vasp.4.4
   GGA_COMPAT  = T    GGA compatible to vasp.4.4-vasp.4.6
   LMAXPAW     = -100 max onsite density
   LMAXMIX     =    2 max onsite mixed and CHGCAR
   VOSKOWN=      0    Vosko Wilk Nusair interpolation
   ROPT   =    0.00000   0.00000
 Ionic relaxation
   EDIFFG = -.2E-01   stopping-criterion for IOM
   NSW    =      0    number of steps for IOM
   NBLOCK =      1;   KBLOCK =      1    inner block; outer block 
   IBRION =     -1    ionic relax: 0-MD 1-quasi-New 2-CG
   NFREE  =      0    steps in history (QN), initial steepest desc. (CG)
   ISIF   =      2    stress and relaxation
   IWAVPR =     10    prediction:  0-non 1-charg 2-wave 3-comb
   ISYM   =      2    0-nonsym 1-usesym 2-fastsym
   LCORR  =      T    Harris-Foulkes like correction to forces

   POTIM  = 0.5000    time-step for ionic-motion
   TEIN   =    0.0    initial temperature
   TEBEG  =    0.0;   TEEND  =   0.0 temperature during run
   SMASS  =  -3.00    Nose mass-parameter (am)
   estimated Nose-frequenzy (Omega)   =  0.10E-29 period in steps =****** mass=  -0.219E-27a.u.
   SCALEE = 1.0000    scale energy and forces
   NPACO  =    256;   APACO  = 16.0  distance and # of slots for P.C.
   PSTRESS=    0.0 pullay stress

  Mass of Ions in am
   POMASS =  28.09 12.01
  Ionic Valenz
   ZVAL   =   4.00  4.00
  Atomic Wigner-Seitz radii
   RWIGS  =  -1.00 -1.00
  virtual crystal weights 
   VCA    =   1.00  1.00
   NELECT =       8.0000    total number of electrons
   NUPDOWN=      -1.0000    fix difference up-down

 DOS related values:
   EMIN   =  10.00;   EMAX   =-10.00  energy-range for DOS
   EFERMI =   0.00
   ISMEAR =     0;   SIGMA  =   0.10  broadening in eV -4-tet -1-fermi 0-gaus

 Electronic relaxation 2 (details)
   IALGO  =     38    algorithm
   LDIAG  =      T    sub-space diagonalisation (order eigenvalues)
   LSUBROT=      F    optimize rotation matrix (better conditioning)
   TURBO    =      0    0=normal 1=particle mesh
   IRESTART =      0    0=no restart 2=restart with 2 vectors
   NREBOOT  =      0    no. of reboots
   NMIN     =      0    reboot dimension
   EREF     =   0.00    reference energy to select bands
   IMIX   =      4    mixing-type and parameters
     AMIX     =   0.40;   BMIX     =  1.00
     AMIX_MAG =   1.60;   BMIX_MAG =  1.00
     AMIN     =   0.10
     WC   =   100.;   INIMIX=   1;  MIXPRE=   1;  MAXMIX= -45

 Intra band minimization:
   WEIMIN = 0.0000     energy-eigenvalue tresh-hold
   EBREAK =  0.52E-08  absolut break condition
   DEPER  =   0.30     relativ break condition  

   TIME   =   0.40     timestep for ELM

  volume/ion in A,a.u.               =      10.50        70.86
  Fermi-wavevector in a.u.,A,eV,Ry     =   1.186755  2.242641 19.162269  1.408387
  Thomas-Fermi vector in A             =   2.322921
 
 Write flags
   LWAVE  =      T    write WAVECAR
   LCHARG =      T    write CHGCAR
   LVTOT  =      F    write LOCPOT, total local potential
   LVHAR  =      F    write LOCPOT, Hartree potential only
   LELF   =      F    write electronic localiz. function (ELF)
   LORBIT =     11    0 simple, 1 ext, 2 COOP (PROOUT)


 Dipole corrections
   LMONO  =      F    monopole corrections only (constant potential shift)
   LDIPOL =      F    correct potential (dipole corrections)
   IDIPOL =      0    1-x, 2-y, 3-z, 4-all directions 
   EPSILON=  1.0000000 bulk dielectric constant

 Exchange correlation treatment:
   GGA     =    --    GGA type
   LEXCH   =     8    internal setting for exchange type
   VOSKOWN=      0    Vosko Wilk Nusair interpolation
   LHFCALC =     F    Hartree Fock is set to
   LHFONE  =     F    Hartree Fock one center treatment
   AEXX    =    0.0000 exact exchange contribution

 Linear response parameters
   LEPSILON=     F    determine dielectric tensor
   LRPA    =     F    only Hartree local field effects (RPA)
   LNABLA  =     F    use nabla operator in PAW spheres
   LVEL    =     F    velocity operator in full k-point grid
   LINTERFAST=   F  fast interpolation
   KINTER  =     0    interpolate to denser k-point grid
   CSHIFT  =0.1000    complex shift for real part using Kramers Kronig
   OMEGAMAX=  -1.0    maximum frequency
   DEG_THRESHOLD= 0.2000000E-02 threshold for treating states as degnerate
   RTIME   =    0.100 relaxation time in fs

 Orbital magnetization related:
   ORBITALMAG=     F  switch on orbital magnetization
   LCHIMAG   =     F  perturbation theory with respect to B field
   DQ        =  0.001000  dq finite difference perturbation B field



--------------------------------------------------------------------------------------------------------


 Static calculation
 charge density and potential remain constant during run
 non-spin polarized calculation
 Variant of blocked Davidson
 Davidson routine will perform the subspace rotation
 perform sub-space diagonalisation
    after iterative eigenvector-optimisation
 no mixing
 using additional bands           44
 reciprocal scheme for non local part
 use partial core corrections
 calculate Harris-corrections to forces 
   (improved forces if not selfconsistent)
 use gradient corrections 
 WARNING: stress and forces are not correct
  (second derivative of E(xc) not defined)
 use of overlap-Matrix (Vanderbilt PP)
 Gauss-broadening in eV      SIGMA  =   0.10


--------------------------------------------------------------------------------------------------------


  energy-cutoff  :      520.00
  volume of cell :       21.00
      direct lattice vectors                 reciprocal lattice vectors
     0.000000000  2.189780000  2.189780000    -0.228333440  0.228333440  0.228333440
     2.189780000  0.000000000  2.189780000     0.228333440 -0.228333440  0.228333440
     2.189780000  2.189780000  0.000000000     0.228333440  0.228333440 -0.228333440

  length of vectors
     3.096816575  3.096816575  3.096816575     0.395485119  0.395485119  0.395485119


 
 k-points in units of 2pi/SCALE and weight: K-Path Generated by VASPMATE            
   0.00000000  0.00000000  0.00000000       0.004
   0.00000000  0.01201755  0.00000000       0.004
   0.00000000  0.02403510  0.00000000       0.004
   0.00000000  0.03605265  0.00000000       0.004
   0.00000000  0.04807020  0.00000000       0.004
   0.00000000  0.06008775  0.00000000       0.004
   0.00000000  0.07210530  0.00000000       0.004
   0.00000000  0.08412285  0.00000000       0.004
   0.00000000  0.09614040  0.00000000       0.004
   0.00000000  0.10815795  0.00000000       0.004
   0.00000000  0.12017549  0.00000000       0.004
   0.00000000  0.13219304  0.00000000       0.004
   0.00000000  0.14421059  0.00000000       0.004
   0.00000000  0.15622814  0.00000000       0.004
   0.00000000  0.16824569  0.00000000       0.004
   0.00000000  0.18026324  0.00000000       0.004
   0.00000000  0.19228079  0.00000000       0.004
   0.00000000  0.20429834  0.00000000       0.004
   0.00000000  0.21631589  0.00000000       0.004
   0.00000000  0.22833344  0.00000000       0.004
   0.00000000  0.22833344  0.00000000       0.004
   0.00300439  0.22833344  0.00300439       0.004
   0.00600877  0.22833344  0.00600877       0.004
   0.00901316  0.22833344  0.00901316       0.004
   0.01201755  0.22833344  0.01201755       0.004
   0.01502194  0.22833344  0.01502194       0.004
   0.01802632  0.22833344  0.01802632       0.004
   0.02103071  0.22833344  0.02103071       0.004
   0.02403510  0.22833344  0.02403510       0.004
   0.02703949  0.22833344  0.02703949       0.004
   0.03004387  0.22833344  0.03004387       0.004
   0.03304826  0.22833344  0.03304826       0.004
   0.03605265  0.22833344  0.03605265       0.004
   0.03905704  0.22833344  0.03905704       0.004
   0.04206142  0.22833344  0.04206142       0.004
   0.04506581  0.22833344  0.04506581       0.004
   0.04807020  0.22833344  0.04807020       0.004
   0.05107459  0.22833344  0.05107459       0.004
   0.05407897  0.22833344  0.05407897       0.004
   0.05708336  0.22833344  0.05708336       0.004
   0.17125008  0.17125008  0.00000000       0.004
   0.16223692  0.16223692  0.00000000       0.004
   0.15322376  0.15322376  0.00000000       0.004
   0.14421059  0.14421059  0.00000000       0.004
   0.13519743  0.13519743  0.00000000       0.004
   0.12618427  0.12618427  0.00000000       0.004
   0.11717111  0.11717111  0.00000000       0.004
   0.10815795  0.10815795  0.00000000       0.004
   0.09914478  0.09914478  0.00000000       0.004
   0.09013162  0.09013162  0.00000000       0.004
   0.08111846  0.08111846  0.00000000       0.004
   0.07210530  0.07210530  0.00000000       0.004
   0.06309213  0.06309213  0.00000000       0.004
   0.05407897  0.05407897  0.00000000       0.004
   0.04506581  0.04506581  0.00000000       0.004
   0.03605265  0.03605265  0.00000000       0.004
   0.02703949  0.02703949  0.00000000       0.004
   0.01802632  0.01802632  0.00000000       0.004
   0.00901316  0.00901316  0.00000000       0.004
   0.00000000  0.00000000  0.00000000       0.004
   0.00000000  0.00000000  0.00000000       0.004
   0.00600877  0.00600877  0.00600877       0.004
   0.01201755  0.01201755  0.01201755       0.004
   0.01802632  0.01802632  0.01802632       0.004
   0.02403510  0.02403510  0.02403510       0.004
   0.03004387  0.03004387  0.03004387       0.004
   0.03605265  0.03605265  0.03605265       0.004
   0.04206142  0.04206142  0.04206142       0.004
   0.04807020  0.04807020  0.04807020       0.004
   0.05407897  0.05407897  0.05407897       0.004
   0.06008775  0.06008775  0.06008775       0.004
   0.06609652  0.06609652  0.06609652       0.004
   0.07210530  0.07210530  0.07210530       0.004
   0.07811407  0.07811407  0.07811407       0.004
   0.08412285  0.08412285  0.08412285       0.004
   0.09013162  0.09013162  0.09013162       0.004
   0.09614040  0.09614040  0.09614040       0.004
   0.10214917  0.10214917  0.10214917       0.004
   0.10815795  0.10815795  0.10815795       0.004
   0.11416672  0.11416672  0.11416672       0.004
   0.11416672  0.11416672  0.11416672       0.004
   0.11416672  0.12017549  0.10815795       0.004
   0.11416672  0.12618427  0.10214917       0.004
   0.11416672  0.13219304  0.09614040       0.004
   0.11416672  0.13820182  0.09013162       0.004
   0.11416672  0.14421059  0.08412285       0.004
   0.11416672  0.15021937  0.07811407       0.004
   0.11416672  0.15622814  0.07210530       0.004
   0.11416672  0.16223692  0.06609652       0.004
   0.11416672  0.16824569  0.06008775       0.004
   0.11416672  0.17425447  0.05407897       0.004
   0.11416672  0.18026324  0.04807020       0.004
   0.11416672  0.18627202  0.04206142       0.004
   0.11416672  0.19228079  0.03605265       0.004
   0.11416672  0.19828957  0.03004387       0.004
   0.11416672  0.20429834  0.02403510       0.004
   0.11416672  0.21030712  0.01802632       0.004
   0.11416672  0.21631589  0.01201755       0.004
   0.11416672  0.22232467  0.00600877       0.004
   0.11416672  0.22833344  0.00000000       0.004
   0.11416672  0.22833344  0.00000000       0.004
   0.10815795  0.22833344  0.00000000       0.004
   0.10214917  0.22833344 -0.00000000       0.004
   0.09614040  0.22833344  0.00000000       0.004
   0.09013162  0.22833344  0.00000000       0.004
   0.08412285  0.22833344 -0.00000000       0.004
   0.07811407  0.22833344  0.00000000       0.004
   0.07210530  0.22833344  0.00000000       0.004
   0.06609652  0.22833344 -0.00000000       0.004
   0.06008775  0.22833344  0.00000000       0.004
   0.05407897  0.22833344  0.00000000       0.004
   0.04807020  0.22833344  0.00000000       0.004
   0.04206142  0.22833344  0.00000000       0.004
   0.03605265  0.22833344  0.00000000       0.004
   0.03004387  0.22833344  0.00000000       0.004
   0.02403510  0.22833344  0.00000000       0.004
   0.01802632  0.22833344  0.00000000       0.004
   0.01201755  0.22833344 -0.00000000       0.004
   0.00600877  0.22833344  0.00000000       0.004
   0.00000000  0.22833344  0.00000000       0.004
   0.00000000  0.00000000  0.00000000       0.004
   0.00000000 -0.01201755  0.00000000       0.004
   0.00000000 -0.02403510  0.00000000       0.004
   0.00000000 -0.03605265  0.00000000       0.004
   0.00000000 -0.04807020  0.00000000       0.004
   0.00000000 -0.06008775  0.00000000       0.004
   0.00000000 -0.07210530  0.00000000       0.004
   0.00000000 -0.08412285  0.00000000       0.004
   0.00000000 -0.09614040  0.00000000       0.004
   0.00000000 -0.10815795  0.00000000       0.004
   0.00000000 -0.12017549  0.00000000       0.004
   0.00000000 -0.13219304  0.00000000       0.004
   0.00000000 -0.14421059  0.00000000       0.004
   0.00000000 -0.15622814  0.00000000       0.004
   0.00000000 -0.16824569  0.00000000       0.004
   0.00000000 -0.18026324  0.00000000       0.004
   0.00000000 -0.19228079  0.00000000       0.004
   0.00000000 -0.20429834  0.00000000       0.004
   0.00000000 -0.21631589  0.00000000       0.004
   0.00000000 -0.22833344  0.00000000       0.004
   0.00000000 -0.22833344  0.00000000       0.004
  -0.00300439 -0.22833344 -0.00300439       0.004
  -0.00600877 -0.22833344 -0.00600877       0.004
  -0.00901316 -0.22833344 -0.00901316       0.004
  -0.01201755 -0.22833344 -0.01201755       0.004
  -0.01502194 -0.22833344 -0.01502194       0.004
  -0.01802632 -0.22833344 -0.01802632       0.004
  -0.02103071 -0.22833344 -0.02103071       0.004
  -0.02403510 -0.22833344 -0.02403510       0.004
  -0.02703949 -0.22833344 -0.02703949       0.004
  -0.03004387 -0.22833344 -0.03004387       0.004
  -0.03304826 -0.22833344 -0.03304826       0.004
  -0.03605265 -0.22833344 -0.03605265       0.004
  -0.03905704 -0.22833344 -0.03905704       0.004
  -0.04206142 -0.22833344 -0.04206142       0.004
  -0.04506581 -0.22833344 -0.04506581       0.004
  -0.04807020 -0.22833344 -0.04807020       0.004
  -0.05107459 -0.22833344 -0.05107459       0.004
  -0.05407897 -0.22833344 -0.05407897       0.004
  -0.05708336 -0.22833344 -0.05708336       0.004
  -0.17125008 -0.17125008  0.00000000       0.004
  -0.16223692 -0.16223692  0.00000000       0.004
  -0.15322376 -0.15322376  0.00000000       0.004
  -0.14421059 -0.14421059  0.00000000       0.004
  -0.13519743 -0.13519743  0.00000000       0.004
  -0.12618427 -0.12618427  0.00000000       0.004
  -0.11717111 -0.11717111  0.00000000       0.004
  -0.10815795 -0.10815795  0.00000000       0.004
  -0.09914478 -0.09914478  0.00000000       0.004
  -0.09013162 -0.09013162  0.00000000       0.004
  -0.08111846 -0.08111846  0.00000000       0.004
  -0.07210530 -0.07210530  0.00000000       0.004
  -0.06309213 -0.06309213  0.00000000       0.004
  -0.05407897 -0.05407897  0.00000000       0.004
  -0.04506581 -0.04506581  0.00000000       0.004
  -0.03605265 -0.03605265  0.00000000       0.004
  -0.02703949 -0.02703949  0.00000000       0.004
  -0.01802632 -0.01802632  0.00000000       0.004
  -0.00901316 -0.00901316  0.00000000       0.004
   0.00000000  0.00000000  0.00000000       0.004
   0.00000000  0.00000000  0.00000000       0.004
  -0.00600877 -0.00600877 -0.00600877       0.004
  -0.01201755 -0.01201755 -0.01201755       0.004
  -0.01802632 -0.01802632 -0.01802632       0.004
  -0.02403510 -0.02403510 -0.02403510       0.004
  -0.03004387 -0.03004387 -0.03004387       0.004
  -0.03605265 -0.03605265 -0.03605265       0.004
  -0.04206142 -0.04206142 -0.04206142       0.004
  -0.04807020 -0.04807020 -0.04807020       0.004
  -0.05407897 -0.05407897 -0.05407897       0.004
  -0.06008775 -0.06008775 -0.06008775       0.004
  -0.06609652 -0.06609652 -0.06609652       0.004
  -0.07210530 -0.07210530 -0.07210530       0.004
  -0.07811407 -0.07811407 -0.07811407       0.004
  -0.08412285 -0.08412285 -0.08412285       0.004
  -0.09013162 -0.09013162 -0.09013162       0.004
  -0.09614040 -0.09614040 -0.09614040       0.004
  -0.10214917 -0.10214917 -0.10214917       0.004
  -0.10815795 -0.10815795 -0.10815795       0.004
  -0.11416672 -0.11416672 -0.11416672       0.004
  -0.11416672 -0.11416672 -0.11416672       0.004
  -0.11416672 -0.12017549 -0.10815795       0.004
  -0.11416672 -0.12618427 -0.10214917       0.004
  -0.11416672 -0.13219304 -0.09614040       0.004
  -0.11416672 -0.13820182 -0.09013162       0.004
  -0.11416672 -0.14421059 -0.08412285       0.004
  -0.11416672 -0.15021937 -0.07811407       0.004
  -0.11416672 -0.15622814 -0.07210530       0.004
  -0.11416672 -0.16223692 -0.06609652       0.004
  -0.11416672 -0.16824569 -0.06008775       0.004
  -0.11416672 -0.17425447 -0.05407897       0.004
  -0.11416672 -0.18026324 -0.04807020       0.004
  -0.11416672 -0.18627202 -0.04206142       0.004
  -0.11416672 -0.19228079 -0.03605265       0.004
  -0.11416672 -0.19828957 -0.03004387       0.004
  -0.11416672 -0.20429834 -0.02403510       0.004
  -0.11416672 -0.21030712 -0.01802632       0.004
  -0.11416672 -0.21631589 -0.01201755       0.004
  -0.11416672 -0.22232467 -0.00600877       0.004
  -0.11416672 -0.22833344  0.00000000       0.004
  -0.11416672 -0.22833344  0.00000000       0.004
  -0.10815795 -0.22833344 -0.00000000       0.004
  -0.10214917 -0.22833344  0.00000000       0.004
  -0.09614040 -0.22833344  0.00000000       0.004
  -0.09013162 -0.22833344  0.00000000       0.004
  -0.08412285 -0.22833344  0.00000000       0.004
  -0.07811407 -0.22833344  0.00000000       0.004
  -0.07210530 -0.22833344  0.00000000       0.004
  -0.06609652 -0.22833344  0.00000000       0.004
  -0.06008775 -0.22833344  0.00000000       0.004
  -0.05407897 -0.22833344  0.00000000       0.004
  -0.04807020 -0.22833344  0.00000000       0.004
  -0.04206142 -0.22833344  0.00000000       0.004
  -0.03605265 -0.22833344  0.00000000       0.004
  -0.03004387 -0.22833344 -0.00000000       0.004
  -0.02403510 -0.22833344  0.00000000       0.004
  -0.01802632 -0.22833344  0.00000000       0.004
  -0.01201755 -0.22833344  0.00000000       0.004
  -0.00600877 -0.22833344  0.00000000       0.004
   0.00000000 -0.22833344  0.00000000       0.004
 
 k-points in reciprocal lattice and weights: K-Path Generated by VASPMATE            
   0.00000000  0.00000000  0.00000000       0.004
   0.02631579  0.00000000  0.02631579       0.004
   0.05263158  0.00000000  0.05263158       0.004
   0.07894737  0.00000000  0.07894737       0.004
   0.10526316  0.00000000  0.10526316       0.004
   0.13157895  0.00000000  0.13157895       0.004
   0.15789474  0.00000000  0.15789474       0.004
   0.18421053  0.00000000  0.18421053       0.004
   0.21052632  0.00000000  0.21052632       0.004
   0.23684211  0.00000000  0.23684211       0.004
   0.26315789  0.00000000  0.26315789       0.004
   0.28947368  0.00000000  0.28947368       0.004
   0.31578947  0.00000000  0.31578947       0.004
   0.34210526  0.00000000  0.34210526       0.004
   0.36842105  0.00000000  0.36842105       0.004
   0.39473684  0.00000000  0.39473684       0.004
   0.42105263  0.00000000  0.42105263       0.004
   0.44736842  0.00000000  0.44736842       0.004
   0.47368421  0.00000000  0.47368421       0.004
   0.50000000  0.00000000  0.50000000       0.004
   0.50000000  0.00000000  0.50000000       0.004
   0.50657895  0.01315789  0.50657895       0.004
   0.51315789  0.02631579  0.51315789       0.004
   0.51973684  0.03947368  0.51973684       0.004
   0.52631579  0.05263158  0.52631579       0.004
   0.53289474  0.06578947  0.53289474       0.004
   0.53947368  0.07894737  0.53947368       0.004
   0.54605263  0.09210526  0.54605263       0.004
   0.55263158  0.10526316  0.55263158       0.004
   0.55921053  0.11842105  0.55921053       0.004
   0.56578947  0.13157895  0.56578947       0.004
   0.57236842  0.14473684  0.57236842       0.004
   0.57894737  0.15789474  0.57894737       0.004
   0.58552632  0.17105263  0.58552632       0.004
   0.59210526  0.18421053  0.59210526       0.004
   0.59868421  0.19736842  0.59868421       0.004
   0.60526316  0.21052632  0.60526316       0.004
   0.61184211  0.22368421  0.61184211       0.004
   0.61842105  0.23684211  0.61842105       0.004
   0.62500000  0.25000000  0.62500000       0.004
   0.37500000  0.37500000  0.75000000       0.004
   0.35526316  0.35526316  0.71052632       0.004
   0.33552632  0.33552632  0.67105263       0.004
   0.31578947  0.31578947  0.63157895       0.004
   0.29605263  0.29605263  0.59210526       0.004
   0.27631579  0.27631579  0.55263158       0.004
   0.25657895  0.25657895  0.51315789       0.004
   0.23684211  0.23684211  0.47368421       0.004
   0.21710526  0.21710526  0.43421053       0.004
   0.19736842  0.19736842  0.39473684       0.004
   0.17763158  0.17763158  0.35526316       0.004
   0.15789474  0.15789474  0.31578947       0.004
   0.13815789  0.13815789  0.27631579       0.004
   0.11842105  0.11842105  0.23684211       0.004
   0.09868421  0.09868421  0.19736842       0.004
   0.07894737  0.07894737  0.15789474       0.004
   0.05921053  0.05921053  0.11842105       0.004
   0.03947368  0.03947368  0.07894737       0.004
   0.01973684  0.01973684  0.03947368       0.004
   0.00000000  0.00000000  0.00000000       0.004
   0.00000000  0.00000000  0.00000000       0.004
   0.02631579  0.02631579  0.02631579       0.004
   0.05263158  0.05263158  0.05263158       0.004
   0.07894737  0.07894737  0.07894737       0.004
   0.10526316  0.10526316  0.10526316       0.004
   0.13157895  0.13157895  0.13157895       0.004
   0.15789474  0.15789474  0.15789474       0.004
   0.18421053  0.18421053  0.18421053       0.004
   0.21052632  0.21052632  0.21052632       0.004
   0.23684211  0.23684211  0.23684211       0.004
   0.26315789  0.26315789  0.26315789       0.004
   0.28947368  0.28947368  0.28947368       0.004
   0.31578947  0.31578947  0.31578947       0.004
   0.34210526  0.34210526  0.34210526       0.004
   0.36842105  0.36842105  0.36842105       0.004
   0.39473684  0.39473684  0.39473684       0.004
   0.42105263  0.42105263  0.42105263       0.004
   0.44736842  0.44736842  0.44736842       0.004
   0.47368421  0.47368421  0.47368421       0.004
   0.50000000  0.50000000  0.50000000       0.004
   0.50000000  0.50000000  0.50000000       0.004
   0.50000000  0.48684211  0.51315789       0.004
   0.50000000  0.47368421  0.52631579       0.004
   0.50000000  0.46052632  0.53947368       0.004
   0.50000000  0.44736842  0.55263158       0.004
   0.50000000  0.43421053  0.56578947       0.004
   0.50000000  0.42105263  0.57894737       0.004
   0.50000000  0.40789474  0.59210526       0.004
   0.50000000  0.39473684  0.60526316       0.004
   0.50000000  0.38157895  0.61842105       0.004
   0.50000000  0.36842105  0.63157895       0.004
   0.50000000  0.35526316  0.64473684       0.004
   0.50000000  0.34210526  0.65789474       0.004
   0.50000000  0.32894737  0.67105263       0.004
   0.50000000  0.31578947  0.68421053       0.004
   0.50000000  0.30263158  0.69736842       0.004
   0.50000000  0.28947368  0.71052632       0.004
   0.50000000  0.27631579  0.72368421       0.004
   0.50000000  0.26315789  0.73684211       0.004
   0.50000000  0.25000000  0.75000000       0.004
   0.50000000  0.25000000  0.75000000       0.004
   0.50000000  0.23684211  0.73684211       0.004
   0.50000000  0.22368421  0.72368421       0.004
   0.50000000  0.21052632  0.71052632       0.004
   0.50000000  0.19736842  0.69736842       0.004
   0.50000000  0.18421053  0.68421053       0.004
   0.50000000  0.17105263  0.67105263       0.004
   0.50000000  0.15789474  0.65789474       0.004
   0.50000000  0.14473684  0.64473684       0.004
   0.50000000  0.13157895  0.63157895       0.004
   0.50000000  0.11842105  0.61842105       0.004
   0.50000000  0.10526316  0.60526316       0.004
   0.50000000  0.09210526  0.59210526       0.004
   0.50000000  0.07894737  0.57894737       0.004
   0.50000000  0.06578947  0.56578947       0.004
   0.50000000  0.05263158  0.55263158       0.004
   0.50000000  0.03947368  0.53947368       0.004
   0.50000000  0.02631579  0.52631579       0.004
   0.50000000  0.01315789  0.51315789       0.004
   0.50000000  0.00000000  0.50000000       0.004
   0.00000000  0.00000000  0.00000000       0.004
  -0.02631579  0.00000000 -0.02631579       0.004
  -0.05263158  0.00000000 -0.05263158       0.004
  -0.07894737  0.00000000 -0.07894737       0.004
  -0.10526316  0.00000000 -0.10526316       0.004
  -0.13157895  0.00000000 -0.13157895       0.004
  -0.15789474  0.00000000 -0.15789474       0.004
  -0.18421053  0.00000000 -0.18421053       0.004
  -0.21052632  0.00000000 -0.21052632       0.004
  -0.23684211  0.00000000 -0.23684211       0.004
  -0.26315789  0.00000000 -0.26315789       0.004
  -0.28947368  0.00000000 -0.28947368       0.004
  -0.31578947  0.00000000 -0.31578947       0.004
  -0.34210526  0.00000000 -0.34210526       0.004
  -0.36842105  0.00000000 -0.36842105       0.004
  -0.39473684  0.00000000 -0.39473684       0.004
  -0.42105263  0.00000000 -0.42105263       0.004
  -0.44736842  0.00000000 -0.44736842       0.004
  -0.47368421  0.00000000 -0.47368421       0.004
  -0.50000000  0.00000000 -0.50000000       0.004
  -0.50000000  0.00000000 -0.50000000       0.004
  -0.50657895 -0.01315789 -0.50657895       0.004
  -0.51315789 -0.02631579 -0.51315789       0.004
  -0.51973684 -0.03947368 -0.51973684       0.004
  -0.52631579 -0.05263158 -0.52631579       0.004
  -0.53289474 -0.06578947 -0.53289474       0.004
  -0.53947368 -0.07894737 -0.53947368       0.004
  -0.54605263 -0.09210526 -0.54605263       0.004
  -0.55263158 -0.10526316 -0.55263158       0.004
  -0.55921053 -0.11842105 -0.55921053       0.004
  -0.56578947 -0.13157895 -0.56578947       0.004
  -0.57236842 -0.14473684 -0.57236842       0.004
  -0.57894737 -0.15789474 -0.57894737       0.004
  -0.58552632 -0.17105263 -0.58552632       0.004
  -0.59210526 -0.18421053 -0.59210526       0.004
  -0.59868421 -0.19736842 -0.59868421       0.004
  -0.60526316 -0.21052632 -0.60526316       0.004
  -0.61184211 -0.22368421 -0.61184211       0.004
  -0.61842105 -0.23684211 -0.61842105       0.004
  -0.62500000 -0.25000000 -0.62500000       0.004
  -0.37500000 -0.37500000 -0.75000000       0.004
  -0.35526316 -0.35526316 -0.71052632       0.004
  -0.33552632 -0.33552632 -0.67105263       0.004
  -0.31578947 -0.31578947 -0.63157895       0.004
  -0.29605263 -0.29605263 -0.59210526       0.004
  -0.27631579 -0.27631579 -0.55263158       0.004
  -0.25657895 -0.25657895 -0.51315789       0.004
  -0.23684211 -0.23684211 -0.47368421       0.004
  -0.21710526 -0.21710526 -0.43421053       0.004
  -0.19736842 -0.19736842 -0.39473684       0.004
  -0.17763158 -0.17763158 -0.35526316       0.004
  -0.15789474 -0.15789474 -0.31578947       0.004
  -0.13815789 -0.13815789 -0.27631579       0.004
  -0.11842105 -0.11842105 -0.23684211       0.004
  -0.09868421 -0.09868421 -0.19736842       0.004
  -0.07894737 -0.07894737 -0.15789474       0.004
  -0.05921053 -0.05921053 -0.11842105       0.004
  -0.03947368 -0.03947368 -0.07894737       0.004
  -0.01973684 -0.01973684 -0.03947368       0.004
   0.00000000  0.00000000  0.00000000       0.004
   0.00000000  0.00000000  0.00000000       0.004
  -0.02631579 -0.02631579 -0.02631579       0.004
  -0.05263158 -0.05263158 -0.05263158       0.004
  -0.07894737 -0.07894737 -0.07894737       0.004
  -0.10526316 -0.10526316 -0.10526316       0.004
  -0.13157895 -0.13157895 -0.13157895       0.004
  -0.15789474 -0.15789474 -0.15789474       0.004
  -0.18421053 -0.18421053 -0.18421053       0.004
  -0.21052632 -0.21052632 -0.21052632       0.004
  -0.23684211 -0.23684211 -0.23684211       0.004
  -0.26315789 -0.26315789 -0.26315789       0.004
  -0.28947368 -0.28947368 -0.28947368       0.004
  -0.31578947 -0.31578947 -0.31578947       0.004
  -0.34210526 -0.34210526 -0.34210526       0.004
  -0.36842105 -0.36842105 -0.36842105       0.004
  -0.39473684 -0.39473684 -0.39473684       0.004
  -0.42105263 -0.42105263 -0.42105263       0.004
  -0.44736842 -0.44736842 -0.44736842       0.004
  -0.47368421 -0.47368421 -0.47368421       0.004
  -0.50000000 -0.50000000 -0.50000000       0.004
  -0.50000000 -0.50000000 -0.50000000       0.004
  -0.50000000 -0.48684211 -0.51315789       0.004
  -0.50000000 -0.47368421 -0.52631579       0.004
  -0.50000000 -0.46052632 -0.53947368       0.004
  -0.50000000 -0.44736842 -0.55263158       0.004
  -0.50000000 -0.43421053 -0.56578947       0.004
  -0.50000000 -0.42105263 -0.57894737       0.004
  -0.50000000 -0.40789474 -0.59210526       0.004
  -0.50000000 -0.39473684 -0.60526316       0.004
  -0.50000000 -0.38157895 -0.61842105       0.004
  -0.50000000 -0.36842105 -0.63157895       0.004
  -0.50000000 -0.35526316 -0.64473684       0.004
  -0.50000000 -0.34210526 -0.65789474       0.004
  -0.50000000 -0.32894737 -0.67105263       0.004
  -0.50000000 -0.31578947 -0.68421053       0.004
  -0.50000000 -0.30263158 -0.69736842       0.004
  -0.50000000 -0.28947368 -0.71052632       0.004
  -0.50000000 -0.27631579 -0.72368421       0.004
  -0.50000000 -0.26315789 -0.73684211       0.004
  -0.50000000 -0.25000000 -0.75000000       0.004
  -0.50000000 -0.25000000 -0.75000000       0.004
  -0.50000000 -0.23684211 -0.73684211       0.004
  -0.50000000 -0.22368421 -0.72368421       0.004
  -0.50000000 -0.21052632 -0.71052632       0.004
  -0.50000000 -0.19736842 -0.69736842       0.004
  -0.50000000 -0.18421053 -0.68421053       0.004
  -0.50000000 -0.17105263 -0.67105263       0.004
  -0.50000000 -0.15789474 -0.65789474       0.004
  -0.50000000 -0.14473684 -0.64473684       0.004
  -0.50000000 -0.13157895 -0.63157895       0.004
  -0.50000000 -0.11842105 -0.61842105       0.004
  -0.50000000 -0.10526316 -0.60526316       0.004
  -0.50000000 -0.09210526 -0.59210526       0.004
  -0.50000000 -0.07894737 -0.57894737       0.004
  -0.50000000 -0.06578947 -0.56578947       0.004
  -0.50000000 -0.05263158 -0.55263158       0.004
  -0.50000000 -0.03947368 -0.53947368       0.004
  -0.50000000 -0.02631579 -0.52631579       0.004
  -0.50000000 -0.01315789 -0.51315789       0.004
  -0.50000000  0.00000000 -0.50000000       0.004
 
 position of ions in fractional coordinates (direct lattice) 
   0.25000000  0.25000000  0.25000000
   0.00000000  0.00000000  0.00000000
 
 position of ions in cartesian coordinates  (Angst):
   1.09489000  1.09489000  1.09489000
   0.00000000  0.00000000  0.00000000
 


--------------------------------------------------------------------------------------------------------


 k-point  1 :   0.0000 0.0000 0.0000  plane waves:     537
 k-point  2 :   0.0263 0.0000 0.0263  plane waves:     541
 k-point  3 :   0.0526 0.0000 0.0526  plane waves:     541
 k-point  4 :   0.0789 0.0000 0.0789  plane waves:     556
 k-point  5 :   0.1053 0.0000 0.1053  plane waves:     556
 k-point  6 :   0.1316 0.0000 0.1316  plane waves:     564
 k-point  7 :   0.1579 0.0000 0.1579  plane waves:     564
 k-point  8 :   0.1842 0.0000 0.1842  plane waves:     568
 k-point  9 :   0.2105 0.0000 0.2105  plane waves:     568
 k-point 10 :   0.2368 0.0000 0.2368  plane waves:     568
 k-point 11 :   0.2632 0.0000 0.2632  plane waves:     568
 k-point 12 :   0.2895 0.0000 0.2895  plane waves:     568
 k-point 13 :   0.3158 0.0000 0.3158  plane waves:     568
 k-point 14 :   0.3421 0.0000 0.3421  plane waves:     568
 k-point 15 :   0.3684 0.0000 0.3684  plane waves:     568
 k-point 16 :   0.3947 0.0000 0.3947  plane waves:     568
 k-point 17 :   0.4211 0.0000 0.4211  plane waves:     560
 k-point 18 :   0.4474 0.0000 0.4474  plane waves:     568
 k-point 19 :   0.4737 0.0000 0.4737  plane waves:     572
 k-point 20 :   0.5000 0.0000 0.5000  plane waves:     588
 k-point 21 :   0.5000 0.0000 0.5000  plane waves:     588
 k-point 22 :   0.5066 0.0132 0.5066  plane waves:     588
 k-point 23 :   0.5132 0.0263 0.5132  plane waves:     578
 k-point 24 :   0.5197 0.0395 0.5197  plane waves:     578
 k-point 25 :   0.5263 0.0526 0.5263  plane waves:     578
 k-point 26 :   0.5329 0.0658 0.5329  plane waves:     578
 k-point 27 :   0.5395 0.0789 0.5395  plane waves:     576
 k-point 28 :   0.5461 0.0921 0.5461  plane waves:     568
 k-point 29 :   0.5526 0.1053 0.5526  plane waves:     568
 k-point 30 :   0.5592 0.1184 0.5592  plane waves:     568
 k-point 31 :   0.5658 0.1316 0.5658  plane waves:     568
 k-point 32 :   0.5724 0.1447 0.5724  plane waves:     572
 k-point 33 :   0.5789 0.1579 0.5789  plane waves:     564
 k-point 34 :   0.5855 0.1711 0.5855  plane waves:     564
 k-point 35 :   0.5921 0.1842 0.5921  plane waves:     564
 k-point 36 :   0.5987 0.1974 0.5987  plane waves:     564
 k-point 37 :   0.6053 0.2105 0.6053  plane waves:     564
 k-point 38 :   0.6118 0.2237 0.6118  plane waves:     560
 k-point 39 :   0.6184 0.2368 0.6184  plane waves:     568
 k-point 40 :   0.6250 0.2500 0.6250  plane waves:     572
 k-point 41 :   0.3750 0.3750 0.7500  plane waves:     572
 k-point 42 :   0.3553 0.3553 0.7105  plane waves:     570
 k-point 43 :   0.3355 0.3355 0.6711  plane waves:     570
 k-point 44 :   0.3158 0.3158 0.6316  plane waves:     568
 k-point 45 :   0.2961 0.2961 0.5921  plane waves:     562
 k-point 46 :   0.2763 0.2763 0.5526  plane waves:     562
 k-point 47 :   0.2566 0.2566 0.5132  plane waves:     554
 k-point 48 :   0.2368 0.2368 0.4737  plane waves:     558
 k-point 49 :   0.2171 0.2171 0.4342  plane waves:     556
 k-point 50 :   0.1974 0.1974 0.3947  plane waves:     562
 k-point 51 :   0.1776 0.1776 0.3553  plane waves:     558
 k-point 52 :   0.1579 0.1579 0.3158  plane waves:     564
 k-point 53 :   0.1382 0.1382 0.2763  plane waves:     560
 k-point 54 :   0.1184 0.1184 0.2368  plane waves:     559
 k-point 55 :   0.0987 0.0987 0.1974  plane waves:     559
 k-point 56 :   0.0789 0.0789 0.1579  plane waves:     559
 k-point 57 :   0.0592 0.0592 0.1184  plane waves:     559
 k-point 58 :   0.0395 0.0395 0.0789  plane waves:     543
 k-point 59 :   0.0197 0.0197 0.0395  plane waves:     541
 k-point 60 :   0.0000 0.0000 0.0000  plane waves:     537
 k-point 61 :   0.0000 0.0000 0.0000  plane waves:     537
 k-point 62 :   0.0263 0.0263 0.0263  plane waves:     537
 k-point 63 :   0.0526 0.0526 0.0526  plane waves:     546
 k-point 64 :   0.0789 0.0789 0.0789  plane waves:     549
 k-point 65 :   0.1053 0.1053 0.1053  plane waves:     555
 k-point 66 :   0.1316 0.1316 0.1316  plane waves:     555
 k-point 67 :   0.1579 0.1579 0.1579  plane waves:     564
 k-point 68 :   0.1842 0.1842 0.1842  plane waves:     564
 k-point 69 :   0.2105 0.2105 0.2105  plane waves:     564
 k-point 70 :   0.2368 0.2368 0.2368  plane waves:     564
 k-point 71 :   0.2632 0.2632 0.2632  plane waves:     570
 k-point 72 :   0.2895 0.2895 0.2895  plane waves:     567
 k-point 73 :   0.3158 0.3158 0.3158  plane waves:     568
 k-point 74 :   0.3421 0.3421 0.3421  plane waves:     562
 k-point 75 :   0.3684 0.3684 0.3684  plane waves:     571
 k-point 76 :   0.3947 0.3947 0.3947  plane waves:     571
 k-point 77 :   0.4211 0.4211 0.4211  plane waves:     571
 k-point 78 :   0.4474 0.4474 0.4474  plane waves:     571
 k-point 79 :   0.4737 0.4737 0.4737  plane waves:     571
 k-point 80 :   0.5000 0.5000 0.5000  plane waves:     568
 k-point 81 :   0.5000 0.5000 0.5000  plane waves:     568
 k-point 82 :   0.5000 0.4868 0.5132  plane waves:     570
 k-point 83 :   0.5000 0.4737 0.5263  plane waves:     572
 k-point 84 :   0.5000 0.4605 0.5395  plane waves:     570
 k-point 85 :   0.5000 0.4474 0.5526  plane waves:     568
 k-point 86 :   0.5000 0.4342 0.5658  plane waves:     566
 k-point 87 :   0.5000 0.4211 0.5789  plane waves:     568
 k-point 88 :   0.5000 0.4079 0.5921  plane waves:     564
 k-point 89 :   0.5000 0.3947 0.6053  plane waves:     562
 k-point 90 :   0.5000 0.3816 0.6184  plane waves:     560
 k-point 91 :   0.5000 0.3684 0.6316  plane waves:     560
 k-point 92 :   0.5000 0.3553 0.6447  plane waves:     558
 k-point 93 :   0.5000 0.3421 0.6579  plane waves:     558
 k-point 94 :   0.5000 0.3289 0.6711  plane waves:     562
 k-point 95 :   0.5000 0.3158 0.6842  plane waves:     564
 k-point 96 :   0.5000 0.3026 0.6974  plane waves:     564
 k-point 97 :   0.5000 0.2895 0.7105  plane waves:     562
 k-point 98 :   0.5000 0.2763 0.7237  plane waves:     564
 k-point 99 :   0.5000 0.2632 0.7368  plane waves:     560
 k-point ** :   0.5000 0.2500 0.7500  plane waves:     560
 k-point ** :   0.5000 0.2500 0.7500  plane waves:     560
 k-point ** :   0.5000 0.2368 0.7368  plane waves:     560
 k-point ** :   0.5000 0.2237 0.7237  plane waves:     560
 k-point ** :   0.5000 0.2105 0.7105  plane waves:     564
 k-point ** :   0.5000 0.1974 0.6974  plane waves:     568
 k-point ** :   0.5000 0.1842 0.6842  plane waves:     564
 k-point ** :   0.5000 0.1711 0.6711  plane waves:     560
 k-point ** :   0.5000 0.1579 0.6579  plane waves:     560
 k-point ** :   0.5000 0.1447 0.6447  plane waves:     568
 k-point ** :   0.5000 0.1316 0.6316  plane waves:     568
 k-point ** :   0.5000 0.1184 0.6184  plane waves:     568
 k-point ** :   0.5000 0.1053 0.6053  plane waves:     568
 k-point ** :   0.5000 0.0921 0.5921  plane waves:     568
 k-point ** :   0.5000 0.0789 0.5789  plane waves:     566
 k-point ** :   0.5000 0.0658 0.5658  plane waves:     574
 k-point ** :   0.5000 0.0526 0.5526  plane waves:     578
 k-point ** :   0.5000 0.0395 0.5395  plane waves:     580
 k-point ** :   0.5000 0.0263 0.5263  plane waves:     580
 k-point ** :   0.5000 0.0132 0.5132  plane waves:     584
 k-point ** :   0.5000 0.0000 0.5000  plane waves:     588
 k-point ** :   0.0000 0.0000 0.0000  plane waves:     537
 k-point ** :  -0.0263 0.0000-0.0263  plane waves:     541
 k-point ** :  -0.0526 0.0000-0.0526  plane waves:     541
 k-point ** :  -0.0789 0.0000-0.0789  plane waves:     556
 k-point ** :  -0.1053 0.0000-0.1053  plane waves:     556
 k-point ** :  -0.1316 0.0000-0.1316  plane waves:     564
 k-point ** :  -0.1579 0.0000-0.1579  plane waves:     564
 k-point ** :  -0.1842 0.0000-0.1842  plane waves:     568
 k-point ** :  -0.2105 0.0000-0.2105  plane waves:     568
 k-point ** :  -0.2368 0.0000-0.2368  plane waves:     568
 k-point ** :  -0.2632 0.0000-0.2632  plane waves:     568
 k-point ** :  -0.2895 0.0000-0.2895  plane waves:     568
 k-point ** :  -0.3158 0.0000-0.3158  plane waves:     568
 k-point ** :  -0.3421 0.0000-0.3421  plane waves:     568
 k-point ** :  -0.3684 0.0000-0.3684  plane waves:     568
 k-point ** :  -0.3947 0.0000-0.3947  plane waves:     568
 k-point ** :  -0.4211 0.0000-0.4211  plane waves:     560
 k-point ** :  -0.4474 0.0000-0.4474  plane waves:     568
 k-point ** :  -0.4737 0.0000-0.4737  plane waves:     572
 k-point ** :  -0.5000 0.0000-0.5000  plane waves:     588
 k-point ** :  -0.5000 0.0000-0.5000  plane waves:     588
 k-point ** :  -0.5066-0.0132-0.5066  plane waves:     588
 k-point ** :  -0.5132-0.0263-0.5132  plane waves:     578
 k-point ** :  -0.5197-0.0395-0.5197  plane waves:     578
 k-point ** :  -0.5263-0.0526-0.5263  plane waves:     578
 k-point ** :  -0.5329-0.0658-0.5329  plane waves:     578
 k-point ** :  -0.5395-0.0789-0.5395  plane waves:     576
 k-point ** :  -0.5461-0.0921-0.5461  plane waves:     568
 k-point ** :  -0.5526-0.1053-0.5526  plane waves:     568
 k-point ** :  -0.5592-0.1184-0.5592  plane waves:     568
 k-point ** :  -0.5658-0.1316-0.5658  plane waves:     568
 k-point ** :  -0.5724-0.1447-0.5724  plane waves:     572
 k-point ** :  -0.5789-0.1579-0.5789  plane waves:     564
 k-point ** :  -0.5855-0.1711-0.5855  plane waves:     564
 k-point ** :  -0.5921-0.1842-0.5921  plane waves:     564
 k-point ** :  -0.5987-0.1974-0.5987  plane waves:     564
 k-point ** :  -0.6053-0.2105-0.6053  plane waves:     564
 k-point ** :  -0.6118-0.2237-0.6118  plane waves:     560
 k-point ** :  -0.6184-0.2368-0.6184  plane waves:     568
 k-point ** :  -0.6250-0.2500-0.6250  plane waves:     572
 k-point ** :  -0.3750-0.3750-0.7500  plane waves:     572
 k-point ** :  -0.3553-0.3553-0.7105  plane waves:     570
 k-point ** :  -0.3355-0.3355-0.6711  plane waves:     570
 k-point ** :  -0.3158-0.3158-0.6316  plane waves:     568
 k-point ** :  -0.2961-0.2961-0.5921  plane waves:     562
 k-point ** :  -0.2763-0.2763-0.5526  plane waves:     562
 k-point ** :  -0.2566-0.2566-0.5132  plane waves:     554
 k-point ** :  -0.2368-0.2368-0.4737  plane waves:     558
 k-point ** :  -0.2171-0.2171-0.4342  plane waves:     556
 k-point ** :  -0.1974-0.1974-0.3947  plane waves:     562
 k-point ** :  -0.1776-0.1776-0.3553  plane waves:     558
 k-point ** :  -0.1579-0.1579-0.3158  plane waves:     564
 k-point ** :  -0.1382-0.1382-0.2763  plane waves:     560
 k-point ** :  -0.1184-0.1184-0.2368  plane waves:     559
 k-point ** :  -0.0987-0.0987-0.1974  plane waves:     559
 k-point ** :  -0.0789-0.0789-0.1579  plane waves:     559
 k-point ** :  -0.0592-0.0592-0.1184  plane waves:     559
 k-point ** :  -0.0395-0.0395-0.0789  plane waves:     543
 k-point ** :  -0.0197-0.0197-0.0395  plane waves:     541
 k-point ** :   0.0000 0.0000 0.0000  plane waves:     537
 k-point ** :   0.0000 0.0000 0.0000  plane waves:     537
 k-point ** :  -0.0263-0.0263-0.0263  plane waves:     537
 k-point ** :  -0.0526-0.0526-0.0526  plane waves:     546
 k-point ** :  -0.0789-0.0789-0.0789  plane waves:     549
 k-point ** :  -0.1053-0.1053-0.1053  plane waves:     555
 k-point ** :  -0.1316-0.1316-0.1316  plane waves:     555
 k-point ** :  -0.1579-0.1579-0.1579  plane waves:     564
 k-point ** :  -0.1842-0.1842-0.1842  plane waves:     564
 k-point ** :  -0.2105-0.2105-0.2105  plane waves:     564
 k-point ** :  -0.2368-0.2368-0.2368  plane waves:     564
 k-point ** :  -0.2632-0.2632-0.2632  plane waves:     570
 k-point ** :  -0.2895-0.2895-0.2895  plane waves:     567
 k-point ** :  -0.3158-0.3158-0.3158  plane waves:     568
 k-point ** :  -0.3421-0.3421-0.3421  plane waves:     562
 k-point ** :  -0.3684-0.3684-0.3684  plane waves:     571
 k-point ** :  -0.3947-0.3947-0.3947  plane waves:     571
 k-point ** :  -0.4211-0.4211-0.4211  plane waves:     571
 k-point ** :  -0.4474-0.4474-0.4474  plane waves:     571
 k-point ** :  -0.4737-0.4737-0.4737  plane waves:     571
 k-point ** :  -0.5000-0.5000-0.5000  plane waves:     568
 k-point ** :  -0.5000-0.5000-0.5000  plane waves:     568
 k-point ** :  -0.5000-0.4868-0.5132  plane waves:     570
 k-point ** :  -0.5000-0.4737-0.5263  plane waves:     572
 k-point ** :  -0.5000-0.4605-0.5395  plane waves:     570
 k-point ** :  -0.5000-0.4474-0.5526  plane waves:     568
 k-point ** :  -0.5000-0.4342-0.5658  plane waves:     566
 k-point ** :  -0.5000-0.4211-0.5789  plane waves:     568
 k-point ** :  -0.5000-0.4079-0.5921  plane waves:     564
 k-point ** :  -0.5000-0.3947-0.6053  plane waves:     562
 k-point ** :  -0.5000-0.3816-0.6184  plane waves:     560
 k-point ** :  -0.5000-0.3684-0.6316  plane waves:     560
 k-point ** :  -0.5000-0.3553-0.6447  plane waves:     558
 k-point ** :  -0.5000-0.3421-0.6579  plane waves:     558
 k-point ** :  -0.5000-0.3289-0.6711  plane waves:     562
 k-point ** :  -0.5000-0.3158-0.6842  plane waves:     564
 k-point ** :  -0.5000-0.3026-0.6974  plane waves:     564
 k-point ** :  -0.5000-0.2895-0.7105  plane waves:     562
 k-point ** :  -0.5000-0.2763-0.7237  plane waves:     564
 k-point ** :  -0.5000-0.2632-0.7368  plane waves:     560
 k-point ** :  -0.5000-0.2500-0.7500  plane waves:     560
 k-point ** :  -0.5000-0.2500-0.7500  plane waves:     560
 k-point ** :  -0.5000-0.2368-0.7368  plane waves:     560
 k-point ** :  -0.5000-0.2237-0.7237  plane waves:     560
 k-point ** :  -0.5000-0.2105-0.7105  plane waves:     564
 k-point ** :  -0.5000-0.1974-0.6974  plane waves:     568
 k-point ** :  -0.5000-0.1842-0.6842  plane waves:     564
 k-point ** :  -0.5000-0.1711-0.6711  plane waves:     560
 k-point ** :  -0.5000-0.1579-0.6579  plane waves:     560
 k-point ** :  -0.5000-0.1447-0.6447  plane waves:     568
 k-point ** :  -0.5000-0.1316-0.6316  plane waves:     568
 k-point ** :  -0.5000-0.1184-0.6184  plane waves:     568
 k-point ** :  -0.5000-0.1053-0.6053  plane waves:     568
 k-point ** :  -0.5000-0.0921-0.5921  plane waves:     568
 k-point ** :  -0.5000-0.0789-0.5789  plane waves:     566
 k-point ** :  -0.5000-0.0658-0.5658  plane waves:     574
 k-point ** :  -0.5000-0.0526-0.5526  plane waves:     578
 k-point ** :  -0.5000-0.0395-0.5395  plane waves:     580
 k-point ** :  -0.5000-0.0263-0.5263  plane waves:     580
 k-point ** :  -0.5000-0.0132-0.5132  plane waves:     584
 k-point ** :  -0.5000 0.0000-0.5000  plane waves:     588

 maximum and minimum number of plane-waves per node :       588      537

 maximum number of plane-waves:       588
 maximum index in each direction: 
   IXMAX=    6   IYMAX=    6   IZMAX=    6
   IXMIN=   -6   IYMIN=   -6   IZMIN=   -6

 WARNING: aliasing errors must be expected set NGX to  26 to avoid them
 WARNING: aliasing errors must be expected set NGY to  26 to avoid them
 WARNING: aliasing errors must be expected set NGZ to  26 to avoid them
 aliasing errors are usually negligible using standard VASP settings
 and one can safely disregard these warnings

 serial   3D FFT for wavefunctions
 parallel 3D FFT for charge:
    minimum data exchange during FFTs selected (reduces bandwidth)


 total amount of memory used by VASP on root node    52884. kBytes
========================================================================

   base      :      30000. kBytes
   nonl-proj :      19189. kBytes
   fftplans  :        414. kBytes
   grid      :        695. kBytes
   one-center:          6. kBytes
   wavefun   :       2580. kBytes
 
     INWAV:  cpu time    0.00: real time    0.00
 initial charge density was supplied:
 number of electron       8.0000000 magnetization 
 keeping initial charge density in first step


--------------------------------------------------------------------------------------------------------


 Maximum index for augmentation-charges         4058 (set IRDMAX)


--------------------------------------------------------------------------------------------------------


 First call to EWALD:  gamma=   0.642
 Maximum number of real-space cells 3x 3x 3
 Maximum number of reciprocal cells 3x 3x 3

 FEWALD executed in parallel
    FEWALD:  cpu time    0.00: real time    0.00


----------------------------------------- Iteration    1(   1)  ---------------------------------------


    POTLOK:  cpu time    0.03: real time    0.03
    SETDIJ:  cpu time    0.02: real time    0.02
     EDDAV:  cpu time   26.54: real time   26.59
       DOS:  cpu time    0.00: real time    0.00
    --------------------------------------------
      LOOP:  cpu time   26.58: real time   26.64

 eigenvalue-minimisations  : 27696
 total energy-change (2. order) :-0.1211183E+02  (-0.4324414E+03)
 number of electron       8.0000000 magnetization 
 augmentation part        8.0000000 magnetization 

 Free energy of the ion-electron system (eV)
  ---------------------------------------------------
  alpha Z        PSCENC =        11.02920051
  Ewald energy   TEWEN  =      -283.38461863
  -Hartree energ DENC   =       -32.03090066
  -exchange      EXHF   =         0.00000000
  -V(xc)+E(xc)   XCENC  =         5.56861362
  PAW double counting   =      1013.53955684     -996.69888099
  entropy T*S    EENTRO =        -0.00000000
  eigenvalues    EBANDS =        19.64995565
  atomic energy  EATOM  =       250.21524468
  ---------------------------------------------------
  free energy    TOTEN  =       -12.11182897 eV

  energy without entropy =      -12.11182897  energy(sigma->0) =      -12.11182897


--------------------------------------------------------------------------------------------------------




----------------------------------------- Iteration    1(   2)  ---------------------------------------


     EDDAV:  cpu time   39.99: real time   40.04
       DOS:  cpu time    0.00: real time    0.00
    --------------------------------------------
      LOOP:  cpu time   39.99: real time   40.06

 eigenvalue-minimisations  : 35424
 total energy-change (2. order) :-0.1395613E+01  (-0.1395613E+01)
 number of electron       8.0000000 magnetization 
 augmentation part        8.0000000 magnetization 

 Free energy of the ion-electron system (eV)
  ---------------------------------------------------
  alpha Z        PSCENC =        11.02920051
  Ewald energy   TEWEN  =      -283.38461863
  -Hartree energ DENC   =       -32.03090066
  -exchange      EXHF   =         0.00000000
  -V(xc)+E(xc)   XCENC  =         5.56861362
  PAW double counting   =      1013.53955684     -996.69888099
  entropy T*S    EENTRO =        -0.00000000
  eigenvalues    EBANDS =        18.25434276
  atomic energy  EATOM  =       250.21524468
  ---------------------------------------------------
  free energy    TOTEN  =       -13.50744186 eV

  energy without entropy =      -13.50744186  energy(sigma->0) =      -13.50744186


--------------------------------------------------------------------------------------------------------




----------------------------------------- Iteration    1(   3)  ---------------------------------------


     EDDAV:  cpu time   22.73: real time   22.76
       DOS:  cpu time    0.00: real time    0.00
    --------------------------------------------
      LOOP:  cpu time   22.73: real time   22.77

 eigenvalue-minimisations  : 24384
 total energy-change (2. order) :-0.2044938E-03  (-0.2044938E-03)
 number of electron       8.0000000 magnetization 
 augmentation part        8.0000000 magnetization 

 Free energy of the ion-electron system (eV)
  ---------------------------------------------------
  alpha Z        PSCENC =        11.02920051
  Ewald energy   TEWEN  =      -283.38461863
  -Hartree energ DENC   =       -32.03090066
  -exchange      EXHF   =         0.00000000
  -V(xc)+E(xc)   XCENC  =         5.56861362
  PAW double counting   =      1013.53955684     -996.69888099
  entropy T*S    EENTRO =        -0.00000000
  eigenvalues    EBANDS =        18.25413826
  atomic energy  EATOM  =       250.21524468
  ---------------------------------------------------
  free energy    TOTEN  =       -13.50764636 eV

  energy without entropy =      -13.50764636  energy(sigma->0) =      -13.50764636


--------------------------------------------------------------------------------------------------------




----------------------------------------- Iteration    1(   4)  ---------------------------------------


     EDDAV:  cpu time   69.03: real time   69.53
       DOS:  cpu time    0.00: real time    0.00
    --------------------------------------------
      LOOP:  cpu time   69.04: real time   69.54

 eigenvalue-minimisations  : 44016
 total energy-change (2. order) :-0.1529622E-07  (-0.1529613E-07)
 number of electron       8.0000000 magnetization 
 augmentation part        8.0000000 magnetization 

 Free energy of the ion-electron system (eV)
  ---------------------------------------------------
  alpha Z        PSCENC =        11.02920051
  Ewald energy   TEWEN  =      -283.38461863
  -Hartree energ DENC   =       -32.03090066
  -exchange      EXHF   =         0.00000000
  -V(xc)+E(xc)   XCENC  =         5.56861362
  PAW double counting   =      1013.53955684     -996.69888099
  entropy T*S    EENTRO =        -0.00000000
  eigenvalues    EBANDS =        18.25413825
  atomic energy  EATOM  =       250.21524468
  ---------------------------------------------------
  free energy    TOTEN  =       -13.50764637 eV

  energy without entropy =      -13.50764637  energy(sigma->0) =      -13.50764637


--------------------------------------------------------------------------------------------------------




----------------------------------------- Iteration    1(   5)  ---------------------------------------


     EDDAV:  cpu time   26.13: real time   26.17
       DOS:  cpu time    0.00: real time    0.00
    --------------------------------------------
      LOOP:  cpu time   26.14: real time   26.18

 eigenvalue-minimisations  : 24048
 total energy-change (2. order) :-0.1136868E-12  ( 0.1029105E-12)
 number of electron       8.0000000 magnetization 
 augmentation part        8.0000000 magnetization 

 Free energy of the ion-electron system (eV)
  ---------------------------------------------------
  alpha Z        PSCENC =        11.02920051
  Ewald energy   TEWEN  =      -283.38461863
  -Hartree energ DENC   =       -32.03090066
  -exchange      EXHF   =         0.00000000
  -V(xc)+E(xc)   XCENC  =         5.56861362
  PAW double counting   =      1013.53955684     -996.69888099
  entropy T*S    EENTRO =        -0.00000000
  eigenvalues    EBANDS =        18.25413825
  atomic energy  EATOM  =       250.21524468
  ---------------------------------------------------
  free energy    TOTEN  =       -13.50764637 eV

  energy without entropy =      -13.50764637  energy(sigma->0) =      -13.50764637


--------------------------------------------------------------------------------------------------------




----------------------------------------- Iteration    1(   6)  ---------------------------------------


     EDDAV:  cpu time   67.69: real time   67.83
       DOS:  cpu time    0.00: real time    0.00
    --------------------------------------------
      LOOP:  cpu time   67.69: real time   67.84

 eigenvalue-minimisations  : 43344
 total energy-change (2. order) :-0.2273737E-12  (-0.1487987E-12)
 number of electron       8.0000000 magnetization 
 augmentation part        8.0000000 magnetization 

 Free energy of the ion-electron system (eV)
  ---------------------------------------------------
  alpha Z        PSCENC =        11.02920051
  Ewald energy   TEWEN  =      -283.38461863
  -Hartree energ DENC   =       -32.03090066
  -exchange      EXHF   =         0.00000000
  -V(xc)+E(xc)   XCENC  =         5.56861362
  PAW double counting   =      1013.53955684     -996.69888099
  entropy T*S    EENTRO =        -0.00000000
  eigenvalues    EBANDS =        18.25413825
  atomic energy  EATOM  =       250.21524468
  ---------------------------------------------------
  free energy    TOTEN  =       -13.50764637 eV

  energy without entropy =      -13.50764637  energy(sigma->0) =      -13.50764637


--------------------------------------------------------------------------------------------------------




 average (electrostatic) potential at core
  the test charge radii are     0.9892  0.6991
  (the norm of the test charge is              1.0000)
       1 -80.5769       2 -44.9929
 
 
 
 E-fermi :   8.6347     XC(G=0): -11.2917     alpha+bet :-16.1933


 k-point     1 :       0.0000    0.0000    0.0000
  band No.  band energies     occupation 
      1      -7.3459      2.00000
      2       7.9415      2.00000
      3       7.9415      2.00000
      4       7.9415      2.00000
      5      14.0022      0.00000
      6      15.1469      0.00000
      7      15.1469      0.00000
      8      15.1469      0.00000
      9      22.3620      0.00000
     10      22.3620      0.00000
     11      24.1938      0.00000
     12      25.0967      0.00000
     13      25.0967      0.00000
     14      25.0967      0.00000
     15      31.2393      0.00000
     16      41.3336      0.00000
     17      41.3336      0.00000
     18      41.3336      0.00000
     19      49.3953      0.00000
     20      49.3953      0.00000
     21      49.3953      0.00000
     22      50.8417      0.00000
     23      50.8417      0.00000
     24      54.8427      0.00000
     25      54.8427      0.00000
     26      54.8427      0.00000
     27      66.6712      0.00000
     28      67.5371      0.00000
     29      67.5371      0.00000
     30      67.5371      0.00000
     31      70.4707      0.00000
     32      70.4707      0.00000
     33      70.4707      0.00000
     34      70.8050      0.00000
     35      70.8050      0.00000
     36      76.6548      0.00000
     37      76.9142      0.00000
     38      76.9142      0.00000
     39      77.7673      0.00000
     40      77.7673      0.00000
     41      77.7673      0.00000
     42      79.2303      0.00000
     43      79.2303      0.00000
     44      79.2303      0.00000
     45      79.8547      0.00000
     46      79.8547      0.00000
     47      79.8547      0.00000
     48      80.3515      0.00000

 k-point     2 :       0.0263    0.0000    0.0263
  band No.  band energies     occupation 
      1      -7.3281      2.00000
      2       7.8820      2.00000
      3       7.9053      2.00000
      4       7.9053      2.00000
      5      14.0570      0.00000
      6      15.0974      0.00000
      7      15.1993      0.00000
      8      15.1993      0.00000
      9      22.0744      0.00000
     10      22.3822      0.00000
     11      24.2473      0.00000
     12      25.1327      0.00000
     13      25.1327      0.00000
     14      25.3610      0.00000
     15      31.3575      0.00000
     16      41.2561      0.00000
     17      41.2561      0.00000
     18      41.3180      0.00000
     19      49.2780      0.00000
     20      49.2780      0.00000
     21      49.3290      0.00000
     22      50.3551      0.00000
     23      50.9492      0.00000
     24      55.0511      0.00000
     25      55.0511      0.00000
     26      55.3530      0.00000
     27      66.2318      0.00000
     28      67.3982      0.00000
     29      67.3982      0.00000
     30      67.7844      0.00000
     31      70.0579      0.00000
     32      70.5010      0.00000
     33      70.5010      0.00000
     34      70.7628      0.00000
     35      70.7710      0.00000
     36      76.3495      0.00000
     37      76.7151      0.00000
     38      76.7192      0.00000
     39      77.2564      0.00000
     40      77.2564      0.00000
     41      78.3728      0.00000
     42      78.4650      0.00000
     43      78.4650      0.00000
     44      79.4132      0.00000
     45      80.0235      0.00000
     46      80.0235      0.00000
     47      80.3636      0.00000
     48      80.5140      0.00000

 k-point     3 :       0.0526    0.0000    0.0526
  band No.  band energies     occupation 
      1      -7.2744      2.00000
      2       7.7107      2.00000
      3       7.8002      2.00000
      4       7.8002      2.00000
      5      14.2053      0.00000
      6      14.9596      0.00000
      7      15.3526      0.00000
      8      15.3526      0.00000
      9      21.4138      0.00000
     10      22.4427      0.00000
     11      24.4529      0.00000
     12      25.2407      0.00000
     13      25.2407      0.00000
     14      25.9054      0.00000
     15      31.7089      0.00000
     16      41.0268      0.00000
     17      41.0268      0.00000
     18      41.2785      0.00000
     19      48.9834      0.00000
     20      48.9834      0.00000
     21      49.1809      0.00000
     22      49.2914      0.00000
     23      51.2191      0.00000
     24      55.6129      0.00000
     25      55.6129      0.00000
     26      56.4859      0.00000
     27      65.3435      0.00000
     28      67.0119      0.00000
     29      67.0119      0.00000
     30      68.1034      0.00000
     31      69.2622      0.00000
     32      70.3592      0.00000
     33      70.5359      0.00000
     34      70.5359      0.00000
     35      70.6450      0.00000
     36      75.6206      0.00000
     37      76.0978      0.00000
     38      76.0978      0.00000
     39      76.2545      0.00000
     40      76.9657      0.00000
     41      77.8252      0.00000
     42      77.8252      0.00000
     43      79.3801      0.00000
     44      79.8427      0.00000
     45      80.5284      0.00000
     46      80.5284      0.00000
     47      80.9774      0.00000
     48      81.4914      0.00000

 k-point     4 :       0.0789    0.0000    0.0789
  band No.  band energies     occupation 
      1      -7.1853      2.00000
      2       7.4458      2.00000
      3       7.6367      2.00000
      4       7.6367      2.00000
      5      14.3699      0.00000
      6      14.7941      0.00000
      7      15.5958      0.00000
      8      15.5958      0.00000
      9      20.6357      0.00000
     10      22.5434      0.00000
     11      24.8099      0.00000
     12      25.4206      0.00000
     13      25.4206      0.00000
     14      26.4787      0.00000
     15      32.2765      0.00000
     16      40.6507      0.00000
     17      40.6507      0.00000
     18      41.2246      0.00000
     19      48.0457      0.00000
     20      48.6173      0.00000
     21      48.6173      0.00000
     22      49.0237      0.00000
     23      51.5679      0.00000
     24      56.3988      0.00000
     25      56.3988      0.00000
     26      57.8398      0.00000
     27      64.2099      0.00000
     28      66.4255      0.00000
     29      66.4255      0.00000
     30      68.1054      0.00000
     31      68.5198      0.00000
     32      69.6263      0.00000
     33      70.4516      0.00000
     34      70.4516      0.00000
     35      70.4744      0.00000
     36      75.0040      0.00000
     37      75.0040      0.00000
     38      75.0316      0.00000
     39      75.7021      0.00000
     40      77.3495      0.00000
     41      77.3495      0.00000
     42      77.4171      0.00000
     43      80.4035      0.00000
     44      80.4838      0.00000
     45      81.0679      0.00000
     46      81.0679      0.00000
     47      81.6685      0.00000
     48      82.5624      0.00000

 k-point     5 :       0.1053    0.0000    0.1053
  band No.  band energies     occupation 
      1      -7.0608      2.00000
      2       7.1089      2.00000
      3       7.4282      2.00000
      4       7.4282      2.00000
      5      14.2721      0.00000
      6      14.8513      0.00000
      7      15.9143      0.00000
      8      15.9143      0.00000
      9      19.8748      0.00000
     10      22.6842      0.00000
     11      25.2909      0.00000
     12      25.6724      0.00000
     13      25.6724      0.00000
     14      27.0019      0.00000
     15      33.0189      0.00000
     16      40.1461      0.00000
     17      40.1461      0.00000
     18      41.1844      0.00000
     19      46.7529      0.00000
     20      48.2586      0.00000
     21      48.2586      0.00000
     22      48.8972      0.00000
     23      51.9408      0.00000
     24      57.2863      0.00000
     25      57.2863      0.00000
     26      59.2672      0.00000
     27      62.8985      0.00000
     28      65.6821      0.00000
     29      65.6821      0.00000
     30      67.1488      0.00000
     31      68.4022      0.00000
     32      68.9168      0.00000
     33      70.1678      0.00000
     34      70.1678      0.00000
     35      70.2870      0.00000
     36      74.2334      0.00000
     37      74.2334      0.00000
     38      74.5809      0.00000
     39      75.1375      0.00000
     40      76.9475      0.00000
     41      76.9475      0.00000
     42      78.0090      0.00000
     43      81.0760      0.00000
     44      81.2817      0.00000
     45      81.4055      0.00000
     46      81.4055      0.00000
     47      82.5087      0.00000
     48      83.0001      0.00000

[...]
     32      65.0878      0.00000
     33      66.5296      0.00000
     34      66.6406      0.00000
     35      70.2962      0.00000
     36      71.5634      0.00000
     37      73.0545      0.00000
     38      75.0602      0.00000
     39      76.2666      0.00000
     40      78.5801      0.00000
     41      80.2034      0.00000
     42      80.5195      0.00000
     43      83.8843      0.00000
     44      86.6804      0.00000
     45      87.6710      0.00000
     46      88.5467      0.00000
     47      89.3135      0.00000
     48      91.4354      0.00000

 k-point   234 :      -0.5000   -0.0789   -0.5789
  band No.  band energies     occupation 
      1      -2.3511      2.00000
      2       0.3185      2.00000
      3       4.3631      2.00000
      4       4.3844      2.00000
      5      10.0747      0.00000
      6      12.9303      0.00000
      7      20.8754      0.00000
      8      21.8346      0.00000
      9      21.9853      0.00000
     10      26.6351      0.00000
     11      29.1889      0.00000
     12      31.1556      0.00000
     13      31.4233      0.00000
     14      33.4777      0.00000
     15      35.0969      0.00000
     16      36.2825      0.00000
     17      38.5464      0.00000
     18      38.6104      0.00000
     19      41.2486      0.00000
     20      41.9812      0.00000
     21      44.1957      0.00000
     22      45.3803      0.00000
     23      49.2179      0.00000
     24      50.5764      0.00000
     25      52.8674      0.00000
     26      56.9950      0.00000
     27      60.3705      0.00000
     28      62.3928      0.00000
     29      62.4871      0.00000
     30      63.6918      0.00000
     31      63.6993      0.00000
     32      65.2349      0.00000
     33      66.4389      0.00000
     34      66.8770      0.00000
     35      70.4830      0.00000
     36      71.2796      0.00000
     37      72.5841      0.00000
     38      74.4756      0.00000
     39      75.6428      0.00000
     40      77.8282      0.00000
     41      80.5933      0.00000
     42      80.6227      0.00000
     43      83.6128      0.00000
     44      86.9424      0.00000
     45      87.7885      0.00000
     46      88.6651      0.00000
     47      89.5746      0.00000
     48      91.1160      0.00000

 k-point   235 :      -0.5000   -0.0658   -0.5658
  band No.  band energies     occupation 
      1      -2.3649      2.00000
      2       0.2810      2.00000
      3       4.4755      2.00000
      4       4.4975      2.00000
      5       9.8589      0.00000
      6      12.7202      0.00000
      7      21.1402      0.00000
      8      21.8297      0.00000
      9      22.1527      0.00000
     10      26.8903      0.00000
     11      29.2894      0.00000
     12      31.0224      0.00000
     13      31.0902      0.00000
     14      33.1987      0.00000
     15      35.3277      0.00000
     16      36.3229      0.00000
     17      38.4829      0.00000
     18      38.7810      0.00000
     19      41.2161      0.00000
     20      41.8052      0.00000
     21      43.7410      0.00000
     22      45.1464      0.00000
     23      49.6434      0.00000
     24      50.8403      0.00000
     25      52.7701      0.00000
     26      56.7928      0.00000
     27      60.7098      0.00000
     28      62.4721      0.00000
     29      63.0702      0.00000
     30      63.5512      0.00000
     31      63.9391      0.00000
     32      65.3547      0.00000
     33      66.4856      0.00000
     34      67.2891      0.00000
     35      70.7039      0.00000
     36      70.9918      0.00000
     37      72.1613      0.00000
     38      73.8763      0.00000
     39      74.9473      0.00000
     40      77.0536      0.00000
     41      80.7827      0.00000
     42      80.9965      0.00000
     43      83.3354      0.00000
     44      87.2322      0.00000
     45      87.8908      0.00000
     46      88.7690      0.00000
     47      89.8295      0.00000
     48      90.7857      0.00000

 k-point   236 :      -0.5000   -0.0526   -0.5526
  band No.  band energies     occupation 
      1      -2.3766      2.00000
      2       0.2498      2.00000
      3       4.5773      2.00000
      4       4.5958      2.00000
      5       9.6722      0.00000
      6      12.5426      0.00000
      7      21.3685      0.00000
      8      21.8213      0.00000
      9      22.2913      0.00000
     10      27.1562      0.00000
     11      29.4055      0.00000
     12      30.7596      0.00000
     13      30.8713      0.00000
     14      32.9642      0.00000
     15      35.5811      0.00000
     16      36.3580      0.00000
     17      38.2921      0.00000
     18      39.0059      0.00000
     19      41.2162      0.00000
     20      41.6957      0.00000
     21      43.3022      0.00000
     22      44.9426      0.00000
     23      50.0674      0.00000
     24      51.0848      0.00000
     25      52.6262      0.00000
     26      56.6008      0.00000
     27      61.0182      0.00000
     28      62.5142      0.00000
     29      63.2057      0.00000
     30      63.8129      0.00000
     31      64.0716      0.00000
     32      65.2624      0.00000
     33      66.9495      0.00000
     34      67.7514      0.00000
     35      70.7088      0.00000
     36      70.9388      0.00000
     37      71.8061      0.00000
     38      73.2568      0.00000
     39      74.2167      0.00000
     40      76.3186      0.00000
     41      80.9829      0.00000
     42      81.3692      0.00000
     43      83.0626      0.00000
     44      87.5329      0.00000
     45      87.9851      0.00000
     46      88.8712      0.00000
     47      89.9698      0.00000
     48      90.5602      0.00000

 k-point   237 :      -0.5000   -0.0395   -0.5395
  band No.  band energies     occupation 
      1      -2.3859      2.00000
      2       0.2252      2.00000
      3       4.6635      2.00000
      4       4.6763      2.00000
      5       9.5196      0.00000
      6      12.4006      0.00000
      7      21.5540      0.00000
      8      21.8139      0.00000
      9      22.3978      0.00000
     10      27.4197      0.00000
     11      29.5373      0.00000
     12      30.4459      0.00000
     13      30.7039      0.00000
     14      32.7807      0.00000
     15      35.8470      0.00000
     16      36.3870      0.00000
     17      38.0558      0.00000
     18      39.2061      0.00000
     19      41.2601      0.00000
     20      41.6391      0.00000
     21      42.8881      0.00000
     22      44.7741      0.00000
     23      50.4821      0.00000
     24      51.2969      0.00000
     25      52.4357      0.00000
     26      56.4304      0.00000
     27      61.2970      0.00000
     28      62.5557      0.00000
     29      63.0390      0.00000
     30      64.1321      0.00000
     31      64.3061      0.00000
     32      65.0683      0.00000
     33      67.6545      0.00000
     34      68.2447      0.00000
     35      70.4398      0.00000
     36      71.1522      0.00000
     37      71.5362      0.00000
     38      72.6246      0.00000
     39      73.4828      0.00000
     40      75.6648      0.00000
     41      81.2070      0.00000
     42      81.6905      0.00000
     43      82.7957      0.00000
     44      87.8204      0.00000
     45      88.0775      0.00000
     46      88.9731      0.00000
     47      89.8285      0.00000
     48      90.6114      0.00000

 k-point   238 :      -0.5000   -0.0263   -0.5263
  band No.  band energies     occupation 
      1      -2.3927      2.00000
      2       0.2076      2.00000
      3       4.7296      2.00000
      4       4.7360      2.00000
      5       9.4061      0.00000
      6      12.2969      0.00000
      7      21.6912      0.00000
      8      21.8084      0.00000
      9      22.4727      0.00000
     10      27.6588      0.00000
     11      29.6811      0.00000
     12      30.1715      0.00000
     13      30.5282      0.00000
     14      32.6508      0.00000
     15      36.1087      0.00000
     16      36.4087      0.00000
     17      37.8034      0.00000
     18      39.3645      0.00000
     19      41.3574      0.00000
     20      41.6166      0.00000
     21      42.5092      0.00000
     22      44.6471      0.00000
     23      50.8810      0.00000
     24      51.4630      0.00000
     25      52.2003      0.00000
     26      56.2945      0.00000
     27      61.5395      0.00000
     28      62.5999      0.00000
     29      62.8605      0.00000
     30      64.1569      0.00000
     31      64.7160      0.00000
     32      64.8835      0.00000
     33      68.4489      0.00000
     34      68.7315      0.00000
     35      70.2067      0.00000
     36      71.2197      0.00000
     37      71.3719      0.00000
     38      72.0744      0.00000
     39      72.7869      0.00000
     40      75.1355      0.00000
     41      81.4424      0.00000
     42      81.9396      0.00000
     43      82.5367      0.00000
     44      88.0630      0.00000
     45      88.1698      0.00000
     46      89.0791      0.00000
     47      89.5804      0.00000
     48      90.7665      0.00000

 k-point   239 :      -0.5000   -0.0132   -0.5132
  band No.  band energies     occupation 
      1      -2.3969      2.00000
      2       0.1969      2.00000
      3       4.7711      2.00000
      4       4.7729      2.00000
      5       9.3359      0.00000
      6      12.2337      0.00000
      7      21.7755      0.00000
      8      21.8049      0.00000
      9      22.5170      0.00000
     10      27.8366      0.00000
     11      29.8219      0.00000
     12      29.9726      0.00000
     13      30.3647      0.00000
     14      32.5741      0.00000
     15      36.3295      0.00000
     16      36.4220      0.00000
     17      37.5832      0.00000
     18      39.4656      0.00000
     19      41.5033      0.00000
     20      41.6111      0.00000
     21      42.1874      0.00000
     22      44.5677      0.00000
     23      51.2573      0.00000
     24      51.5689      0.00000
     25      51.9224      0.00000
     26      56.2058      0.00000
     27      61.7234      0.00000
     28      62.6360      0.00000
     29      62.7129      0.00000
     30      64.1647      0.00000
     31      64.7558      0.00000
     32      64.9857      0.00000
     33      69.1294      0.00000
     34      69.2667      0.00000
     35      70.0419      0.00000
     36      70.8116      0.00000
     37      71.3361      0.00000
     38      71.9009      0.00000
     39      72.1985      0.00000
     40      74.7794      0.00000
     41      81.6716      0.00000
     42      82.0979      0.00000
     43      82.2939      0.00000
     44      88.2225      0.00000
     45      88.2467      0.00000
     46      89.1781      0.00000
     47      89.3816      0.00000
     48      90.8831      0.00000

 k-point   240 :      -0.5000    0.0000   -0.5000
  band No.  band energies     occupation 
      1      -2.3983      2.00000
      2       0.1933      2.00000
      3       4.7853      2.00000
      4       4.7853      2.00000
      5       9.3122      0.00000
      6      12.2125      0.00000
      7      21.8037      0.00000
      8      21.8037      0.00000
      9      22.5316      0.00000
     10      27.9047      0.00000
     11      29.8976      0.00000
     12      29.8976      0.00000
     13      30.2808      0.00000
     14      32.5487      0.00000
     15      36.4263      0.00000
     16      36.4263      0.00000
     17      37.4858      0.00000
     18      39.5003      0.00000
     19      41.6106      0.00000
     20      41.6106      0.00000
     21      42.0204      0.00000
     22      44.5406      0.00000
     23      51.6057      0.00000
     24      51.6057      0.00000
     25      51.6061      0.00000
     26      56.1751      0.00000
     27      61.7980      0.00000
     28      62.6503      0.00000
     29      62.6503      0.00000
     30      64.1660      0.00000
     31      64.7106      0.00000
     32      65.0799      0.00000
     33      69.2941      0.00000
     34      69.9809      0.00000
     35      69.9809      0.00000
     36      70.1750      0.00000
     37      71.3834      0.00000
     38      71.9119      0.00000
     39      71.9119      0.00000
     40      74.6516      0.00000
     41      81.8094      0.00000
     42      82.1511      0.00000
     43      82.1511      0.00000
     44      88.2781      0.00000
     45      88.2781      0.00000
     46      89.2235      0.00000
     47      89.3035      0.00000
     48      90.9224      0.00000


--------------------------------------------------------------------------------------------------------


 soft charge-density along one line, spin component           1
         0         1         2         3         4         5         6         7         8         9
 total charge-density along one line
 
 pseudopotential strength for first ion, spin component:           1
 18.083  25.227  -0.000  -0.000  -0.000  -0.000  -0.000  -0.000
 25.227  35.198  -0.000  -0.000  -0.000  -0.000  -0.000  -0.000
 -0.000  -0.000   4.123  -0.000  -0.000   7.680  -0.000  -0.000
 -0.000  -0.000  -0.000   4.123  -0.000  -0.000   7.680  -0.000
 -0.000  -0.000  -0.000  -0.000   4.123  -0.000  -0.000   7.680
 -0.000  -0.000   7.680  -0.000  -0.000  14.319  -0.000  -0.000
 -0.000  -0.000  -0.000   7.680  -0.000  -0.000  14.319  -0.000
 -0.000  -0.000  -0.000  -0.000   7.680  -0.000  -0.000  14.319
 total augmentation occupancy for first ion, spin component:           1
  2.000   0.000   0.000   0.000   0.000   0.000   0.000   0.000
  0.000   0.000   0.000   0.000   0.000   0.000   0.000   0.000
  0.000   0.000   0.667   0.000   0.000   0.000   0.000   0.000
  0.000   0.000   0.000   0.667   0.000   0.000   0.000   0.000
  0.000   0.000   0.000   0.000   0.667   0.000   0.000   0.000
  0.000   0.000   0.000   0.000   0.000   0.000   0.000   0.000
  0.000   0.000   0.000   0.000   0.000   0.000   0.000   0.000
  0.000   0.000   0.000   0.000   0.000   0.000   0.000   0.000


------------------------ aborting loop because EDIFF is reached ----------------------------------------


 


 total charge     
 
# of ion     s       p       d       tot
----------------------------------------
  1        0.675   0.918   0.000   1.593
  2        0.799   1.821   0.000   2.620
------------------------------------------------
tot        1.474   2.740   0.000   4.213
 
    CHARGE:  cpu time    0.06: real time    0.07
    FORLOC:  cpu time    0.00: real time    0.00
    FORNL :  cpu time    0.14: real time    0.14
    STRESS:  cpu time    1.24: real time    1.24
    FORCOR:  cpu time    0.01: real time    0.01
    FORHAR:  cpu time    0.00: real time    0.00
    OFIELD:  cpu time    0.00: real time    0.00

  FORCE on cell =-STRESS in cart. coord.  units (eV):
  Direction    XX          YY          ZZ          XY          YZ          ZX
  --------------------------------------------------------------------------------------
  Alpha Z    11.02920    11.02920    11.02920
  Ewald     -94.46158   -94.46158   -94.46158    -0.00000    -0.00000     0.00000
  Hartree    11.67951    11.67951    11.67951     0.00000     0.00000     0.00000
  E(xc)     -28.32557   -28.32557   -28.32557     0.00000     0.00000     0.00000
  Local     -20.69134   -20.69134   -20.69134     0.00000     0.00000     0.00000
  n-local    31.87600    27.98075    30.74661    -0.12581    -0.02278    -0.15176
  augment    -5.51874    -5.51874    -5.51874    -0.00000    -0.00000    -0.00000
  Kinetic    96.87612    95.43596   100.18665    -2.12150    -1.36213    -2.23096
  Fock        0.00000     0.00000     0.00000     0.00000     0.00000     0.00000
  -------------------------------------------------------------------------------------
  Total       1.41217     1.41217     1.41217    -0.00000    -0.00000     0.00000
  in kB     107.73768   107.73768   107.73768    -0.00000    -0.00000     0.00000
  external pressure =      107.74 kB  Pullay stress =        0.00 kB


 VOLUME and BASIS-vectors are now :
 -----------------------------------------------------------------------------
  energy-cutoff  :      520.00
  volume of cell :       21.00
      direct lattice vectors                 reciprocal lattice vectors
     0.000000000  2.189780000  2.189780000    -0.228333440  0.228333440  0.228333440
     2.189780000  0.000000000  2.189780000     0.228333440 -0.228333440  0.228333440
     2.189780000  2.189780000  0.000000000     0.228333440  0.228333440 -0.228333440

  length of vectors
     3.096816575  3.096816575  3.096816575     0.395485119  0.395485119  0.395485119


 FORCES acting on ions
    electron-ion (+dipol)            ewald-force                    non-local-force                 convergence-correction
 -----------------------------------------------------------------------------------------------
   -.802E-07 -.802E-07 -.789E-07   -.207E-14 0.394E-14 0.296E-14   0.000E+00 0.000E+00 0.000E+00   -.625E-10 -.625E-10 -.730E-10
   0.855E-08 0.855E-08 0.673E-08   0.208E-14 -.444E-14 -.286E-14   0.312E-16 0.173E-16 0.208E-16   -.408E-09 -.408E-09 -.406E-09
 -----------------------------------------------------------------------------------------------
   -.717E-07 -.717E-07 -.722E-07   0.154E-16 -.498E-15 0.105E-15   0.312E-16 0.173E-16 0.208E-16   -.470E-09 -.470E-09 -.479E-09
 
 
 POSITION                                       TOTAL-FORCE (eV/Angst)
 -----------------------------------------------------------------------------------
      1.09489      1.09489      1.09489         0.000000      0.000000      0.000000
      0.00000      0.00000      0.00000        -0.000000     -0.000000     -0.000000
 -----------------------------------------------------------------------------------
    total drift:                               -0.000000     -0.000000     -0.000000


--------------------------------------------------------------------------------------------------------



  FREE ENERGIE OF THE ION-ELECTRON SYSTEM (eV)
  ---------------------------------------------------
  free  energy   TOTEN  =       -13.50764637 eV

  energy  without entropy=      -13.50764637  energy(sigma->0) =      -13.50764637
 


--------------------------------------------------------------------------------------------------------


    POTLOK:  cpu time    0.03: real time    0.03


--------------------------------------------------------------------------------------------------------


 writing wavefunctions
     LOOP+:  cpu time  254.59: real time  255.57
    4ORBIT:  cpu time    0.00: real time    0.00
 


 total charge     
 
# of ion     s       p       d       tot
----------------------------------------
  1        0.675   0.918   0.000   1.593
  2        0.799   1.821   0.000   2.620
------------------------------------------------
tot        1.474   2.740   0.000   4.213
 

 total amount of memory used by VASP on root node    52884. kBytes
========================================================================

   base      :      30000. kBytes
   nonl-proj :      19189. kBytes
   fftplans  :        414. kBytes
   grid      :        695. kBytes
   one-center:          6. kBytes
   wavefun   :       2580. kBytes
 
  
  
 General timing and accounting informations for this job:
 ========================================================
  
                  Total CPU time used (sec):      258.659
                            User time (sec):      113.558
                          System time (sec):      145.101
                         Elapsed time (sec):      260.102
  
                   Maximum memory used (kb):      128364.
                   Average memory used (kb):           0.
  
                          Minor page faults:      4818325
                          Major page faults:            6
                 Voluntary context switches:         4603
