PROCAR lm decomposed
# of k-points:  240         # of bands:  48         # of ions:   2

 k-point    1 :    0.00000000 0.00000000 0.00000000     weight = 0.00416667

band   1 # energy   -7.34591638 # occ.  2.00000000
 
ion      s     py     pz     px    dxy    dyz    dz2    dxz    dx2    tot
  1  0.244  0.000  0.000  0.000  0.000  0.000  0.000  0.000  0.000  0.244
  2  0.252  0.000  0.000  0.000  0.000  0.000  0.000  0.000  0.000  0.252
tot  0.496  0.000  0.000  0.000  0.000  0.000  0.000  0.000  0.000  0.496
 
band   2 # energy    7.94153056 # occ.  2.00000000
 
ion      s     py     pz     px    dxy    dyz    dz2    dxz    dx2    tot
  1  0.000  0.029  0.000  0.029  0.000  0.000  0.000  0.000  0.000  0.057
  2  0.000  0.235  0.000  0.235  0.000  0.000  0.000  0.000  0.000  0.471
tot  0.000  0.264  0.000  0.264  0.000  0.000  0.000  0.000  0.000  0.528
 
band   3 # energy    7.94153056 # occ.  2.00000000
 
ion      s     py     pz     px    dxy    dyz    dz2    dxz    dx2    tot
  1  0.000  0.010  0.038  0.010  0.000  0.000  0.000  0.000  0.000  0.057
  2  0.000  0.078  0.314  0.078  0.000  0.000  0.000  0.000  0.000  0.471
tot  0.000  0.088  0.352  0.088  0.000  0.000  0.000  0.000  0.000  0.528
 
band   4 # energy    7.94153114 # occ.  2.00000000
 
ion      s     py     pz     px    dxy    dyz    dz2    dxz    dx2    tot
  1  0.000  0.019  0.019  0.019  0.000  0.000  0.000  0.000  0.000  0.057
  2  0.000  0.157  0.157  0.157  0.000  0.000  0.000  0.000  0.000  0.471
tot  0.000  0.176  0.176  0.176  0.000  0.000  0.000  0.000  0.000  0.528
 
band   5 # energy   14.00216522 # occ.  0.00000000
 
ion      s     py     pz     px    dxy    dyz    dz2    dxz    dx2    tot
  1  0.126  0.000  0.000  0.000  0.000  0.000  0.000  0.000  0.000  0.126
  2  0.446  0.000  0.000  0.000  0.000  0.000  0.000  0.000  0.000  0.446
tot  0.572  0.000  0.000  0.000  0.000  0.000  0.000  0.000  0.000  0.572
 
band   6 # energy   15.14688353 # occ.  0.00000000
 
ion      s     py     pz     px    dxy    dyz    dz2    dxz    dx2    tot
  1  0.000  0.166  0.167  0.166  0.000  0.000  0.000  0.000  0.000  0.499
  2  0.000  0.003  0.003  0.003  0.000  0.000  0.000  0.000  0.000  0.010
tot  0.000  0.169  0.170  0.169  0.000  0.000  0.000  0.000  0.000  0.509
 
band   7 # energy   15.14688358 # occ.  0.00000000
 
ion      s     py     pz     px    dxy    dyz    dz2    dxz    dx2    tot
  1  0.000  0.251  0.000  0.248  0.000  0.000  0.000  0.000  0.000  0.499
  2  0.000  0.005  0.000  0.005  0.000  0.000  0.000  0.000  0.000  0.010
tot  0.000  0.256  0.000  0.253  0.000  0.000  0.000  0.000  0.000  0.509
 
band   8 # energy   15.14688358 # occ.  0.00000000
 
ion      s     py     pz     px    dxy    dyz    dz2    dxz    dx2    tot
  1  0.000  0.082  0.332  0.085  0.000  0.000  0.000  0.000  0.000  0.499
  2  0.000  0.002  0.007  0.002  0.000  0.000  0.000  0.000  0.000  0.010
tot  0.000  0.084  0.338  0.087  0.000  0.000  0.000  0.000  0.000  0.509
 
band   9 # energy   22.36197748 # occ.  0.00000000
 
ion      s     py     pz     px    dxy    dyz    dz2    dxz    dx2    tot
  1  0.000  0.000  0.000  0.000  0.000  0.000  0.000  0.000  0.000  0.000
  2  0.000  0.000  0.000  0.000  0.000  0.000  0.000  0.000  0.000  0.000
tot  0.000  0.000  0.000  0.000  0.000  0.000  0.000  0.000  0.000  0.000
 
band  10 # energy   22.36197748 # occ.  0.00000000
 
ion      s     py     pz     px    dxy    dyz    dz2    dxz    dx2    tot
  1  0.000  0.000  0.000  0.000  0.000  0.000  0.000  0.000  0.000  0.000
  2  0.000  0.000  0.000  0.000  0.000  0.000  0.000  0.000  0.000  0.000
tot  0.000  0.000  0.000  0.000  0.000  0.000  0.000  0.000  0.000  0.000
 
band  11 # energy   24.19377035 # occ.  0.00000000
 
ion      s     py     pz     px    dxy    dyz    dz2    dxz    dx2    tot
  1  0.380  0.000  0.000  0.000  0.000  0.000  0.000  0.000  0.000  0.380
  2  0.000  0.000  0.000  0.000  0.000  0.000  0.000  0.000  0.000  0.000
tot  0.380  0.000  0.000  0.000  0.000  0.000  0.000  0.000  0.000  0.380
 
band  12 # energy   25.09672981 # occ.  0.00000000
 
ion      s     py     pz     px    dxy    dyz    dz2    dxz    dx2    tot
  1  0.000  0.008  0.000  0.008  0.000  0.000  0.000  0.000  0.000  0.016
  2  0.000  0.040  0.000  0.040  0.000  0.000  0.000  0.000  0.000  0.080
tot  0.000  0.048  0.000  0.048  0.000  0.000  0.000  0.000  0.000  0.096
 
band  13 # energy   25.09672981 # occ.  0.00000000
 
ion      s     py     pz     px    dxy    dyz    dz2    dxz    dx2    tot
  1  0.000  0.003  0.011  0.003  0.000  0.000  0.000  0.000  0.000  0.016
  2  0.000  0.013  0.053  0.013  0.000  0.000  0.000  0.000  0.000  0.080
tot  0.000  0.016  0.064  0.016  0.000  0.000  0.000  0.000  0.000  0.096
 
band  14 # energy   25.09672992 # occ.  0.00000000
 
ion      s     py     pz     px    dxy    dyz    dz2    dxz    dx2    tot
  1  0.000  0.005  0.005  0.005  0.000  0.000  0.000  0.000  0.000  0.016
  2  0.000  0.027  0.027  0.027  0.000  0.000  0.000  0.000  0.000  0.080
tot  0.000  0.032  0.032  0.032  0.000  0.000  0.000  0.000  0.000  0.096
 
band  15 # energy   31.23927660 # occ.  0.00000000
 
ion      s     py     pz     px    dxy    dyz    dz2    dxz    dx2    tot
  1  0.100  0.000  0.000  0.000  0.000  0.000  0.000  0.000  0.000  0.100
  2  0.058  0.000  0.000  0.000  0.000  0.000  0.000  0.000  0.000  0.058
tot  0.158  0.000  0.000  0.000  0.000  0.000  0.000  0.000  0.000  0.158
 
band  16 # energy   41.33360812 # occ.  0.00000000
 
ion      s     py     pz     px    dxy    dyz    dz2    dxz    dx2    tot
  1  0.000  0.054  0.000  0.054  0.000  0.000  0.000  0.000  0.000  0.107
  2  0.000  0.141  0.000  0.141  0.000  0.000  0.000  0.000  0.000  0.281
tot  0.000  0.194  0.000  0.194  0.000  0.000  0.000  0.000  0.000  0.389
 
band  17 # energy   41.33360812 # occ.  0.00000000
 
ion      s     py     pz     px    dxy    dyz    dz2    dxz    dx2    tot
  1  0.000  0.018  0.071  0.018  0.000  0.000  0.000  0.000  0.000  0.107
  2  0.000  0.047  0.188  0.047  0.000  0.000  0.000  0.000  0.000  0.281
tot  0.000  0.065  0.259  0.065  0.000  0.000  0.000  0.000  0.000  0.389
 
band  18 # energy   41.33360862 # occ.  0.00000000
 
ion      s     py     pz     px    dxy    dyz    dz2    dxz    dx2    tot
  1  0.000  0.036  0.036  0.036  0.000  0.000  0.000  0.000  0.000  0.107
  2  0.000  0.094  0.094  0.094  0.000  0.000  0.000  0.000  0.000  0.281
tot  0.000  0.130  0.130  0.130  0.000  0.000  0.000  0.000  0.000  0.389
 
band  19 # energy   49.39532271 # occ.  0.00000000
 
ion      s     py     pz     px    dxy    dyz    dz2    dxz    dx2    tot
  1  0.000  0.030  0.000  0.030  0.000  0.000  0.000  0.000  0.000  0.059
  2  0.000  0.019  0.000  0.019  0.000  0.000  0.000  0.000  0.000  0.038
tot  0.000  0.049  0.000  0.049  0.000  0.000  0.000  0.000  0.000  0.098
 
band  20 # energy   49.39532271 # occ.  0.00000000
 
ion      s     py     pz     px    dxy    dyz    dz2    dxz    dx2    tot
  1  0.000  0.010  0.040  0.010  0.000  0.000  0.000  0.000  0.000  0.059
  2  0.000  0.006  0.026  0.006  0.000  0.000  0.000  0.000  0.000  0.038
tot  0.000  0.016  0.065  0.016  0.000  0.000  0.000  0.000  0.000  0.098
 
band  21 # energy   49.39532277 # occ.  0.00000000
 
ion      s     py     pz     px    dxy    dyz    dz2    dxz    dx2    tot
  1  0.000  0.020  0.020  0.020  0.000  0.000  0.000  0.000  0.000  0.059
  2  0.000  0.013  0.013  0.013  0.000  0.000  0.000  0.000  0.000  0.038
tot  0.000  0.033  0.033  0.033  0.000  0.000  0.000  0.000  0.000  0.098
 
band  22 # energy   50.84166587 # occ.  0.00000000
 
ion      s     py     pz     px    dxy    dyz    dz2    dxz    dx2    tot
  1  0.000  0.000  0.000  0.000  0.000  0.000  0.000  0.000  0.000  0.000
  2  0.000  0.000  0.000  0.000  0.000  0.000  0.000  0.000  0.000  0.000
tot  0.000  0.000  0.000  0.000  0.000  0.000  0.000  0.000  0.000  0.000
 
band  23 # energy   50.84166587 # occ.  0.00000000
 
ion      s     py     pz     px    dxy    dyz    dz2    dxz    dx2    tot
  1  0.000  0.000  0.000  0.000  0.000  0.000  0.000  0.000  0.000  0.000
  2  0.000  0.000  0.000  0.000  0.000  0.000  0.000  0.000  0.000  0.000
tot  0.000  0.000  0.000  0.000  0.000  0.000  0.000  0.000  0.000  0.000
 
band  24 # energy   54.84269592 # occ.  0.00000000
 
ion      s     py     pz     px    dxy    dyz    dz2    dxz    dx2    tot
  1  0.000  0.000  0.000  0.000  0.000  0.000  0.000  0.000  0.000  0.000
  2  0.000  0.000  0.000  0.000  0.000  0.000  0.000  0.000  0.000  0.000
tot  0.000  0.000  0.000  0.000  0.000  0.000  0.000  0.000  0.000  0.000
 
band  25 # energy   54.84269592 # occ.  0.00000000
 
ion      s     py     pz     px    dxy    dyz    dz2    dxz    dx2    tot
  1  0.000  0.000  0.000  0.000  0.000  0.000  0.000  0.000  0.000  0.000
  2  0.000  0.000  0.000  0.000  0.000  0.000  0.000  0.000  0.000  0.000
tot  0.000  0.000  0.000  0.000  0.000  0.000  0.000  0.000  0.000  0.000
 
band  26 # energy   54.84269595 # occ.  0.00000000
 
ion      s     py     pz     px    dxy    dyz    dz2    dxz    dx2    tot
  1  0.000  0.000  0.000  0.000  0.000  0.000  0.000  0.000  0.000  0.000
  2  0.000  0.000  0.000  0.000  0.000  0.000  0.000  0.000  0.000  0.000
tot  0.000  0.000  0.000  0.000  0.000  0.000  0.000  0.000  0.000  0.000
 
band  27 # energy   66.67117613 # occ.  0.00000000
 
ion      s     py     pz     px    dxy    dyz    dz2    dxz    dx2    tot
  1  0.226  0.000  0.000  0.000  0.000  0.000  0.000  0.000  0.000  0.226
  2  0.124  0.000  0.000  0.000  0.000  0.000  0.000  0.000  0.000  0.124
tot  0.349  0.000  0.000  0.000  0.000  0.000  0.000  0.000  0.000  0.349
 
band  28 # energy   67.53708693 # occ.  0.00000000
 
ion      s     py     pz     px    dxy    dyz    dz2    dxz    dx2    tot
  1  0.000  0.071  0.000  0.070  0.000  0.000  0.000  0.000  0.000  0.140
  2  0.000  0.036  0.000  0.036  0.000  0.000  0.000  0.000  0.000  0.072
tot  0.000  0.107  0.000  0.105  0.000  0.000  0.000  0.000  0.000  0.212
 
band  29 # energy   67.53708693 # occ.  0.00000000
 
ion      s     py     pz     px    dxy    dyz    dz2    dxz    dx2    tot
  1  0.000  0.023  0.094  0.024  0.000  0.000  0.000  0.000  0.000  0.140
  2  0.000  0.012  0.048  0.012  0.000  0.000  0.000  0.000  0.000  0.072
tot  0.000  0.034  0.142  0.036  0.000  0.000  0.000  0.000  0.000  0.212
 
band  30 # energy   67.53708708 # occ.  0.00000000
 
ion      s     py     pz     px    dxy    dyz    dz2    dxz    dx2    tot
  1  0.000  0.047  0.047  0.047  0.000  0.000  0.000  0.000  0.000  0.140
  2  0.000  0.024  0.024  0.024  0.000  0.000  0.000  0.000  0.000  0.072
tot  0.000  0.071  0.071  0.071  0.000  0.000  0.000  0.000  0.000  0.212
 
band  31 # energy   70.47072071 # occ.  0.00000000
 
ion      s     py     pz     px    dxy    dyz    dz2    dxz    dx2    tot
  1  0.000  0.037  0.000  0.037  0.000  0.000  0.000  0.000  0.000  0.074
  2  0.000  0.016  0.000  0.016  0.000  0.000  0.000  0.000  0.000  0.033
tot  0.000  0.053  0.000  0.053  0.000  0.000  0.000  0.000  0.000  0.107
 
band  32 # energy   70.47072071 # occ.  0.00000000
 
ion      s     py     pz     px    dxy    dyz    dz2    dxz    dx2    tot
  1  0.000  0.012  0.049  0.012  0.000  0.000  0.000  0.000  0.000  0.074
  2  0.000  0.005  0.022  0.006  0.000  0.000  0.000  0.000  0.000  0.033
tot  0.000  0.018  0.071  0.018  0.000  0.000  0.000  0.000  0.000  0.107
 
band  33 # energy   70.47072076 # occ.  0.00000000
 
ion      s     py     pz     px    dxy    dyz    dz2    dxz    dx2    tot
  1  0.000  0.025  0.025  0.025  0.000  0.000  0.000  0.000  0.000  0.074
  2  0.000  0.011  0.011  0.011  0.000  0.000  0.000  0.000  0.000  0.033
tot  0.000  0.036  0.036  0.036  0.000  0.000  0.000  0.000  0.000  0.107
 
band  34 # energy   70.80498491 # occ.  0.00000000
 
ion      s     py     pz     px    dxy    dyz    dz2    dxz    dx2    tot
  1  0.000  0.000  0.000  0.000  0.000  0.000  0.000  0.000  0.000  0.000
  2  0.000  0.000  0.000  0.000  0.000  0.000  0.000  0.000  0.000  0.000
tot  0.000  0.000  0.000  0.000  0.000  0.000  0.000  0.000  0.000  0.000
 
band  35 # energy   70.80498491 # occ.  0.00000000
 
ion      s     py     pz     px    dxy    dyz    dz2    dxz    dx2    tot
  1  0.000  0.000  0.000  0.000  0.000  0.000  0.000  0.000  0.000  0.000
  2  0.000  0.000  0.000  0.000  0.000  0.000  0.000  0.000  0.000  0.000
tot  0.000  0.000  0.000  0.000  0.000  0.000  0.000  0.000  0.000  0.000
 
band  36 # energy   76.65478983 # occ.  0.00000000
 
ion      s     py     pz     px    dxy    dyz    dz2    dxz    dx2    tot
  1  0.009  0.000  0.000  0.000  0.000  0.000  0.000  0.000  0.000  0.009
  2  0.100  0.000  0.000  0.000  0.000  0.000  0.000  0.000  0.000  0.100
tot  0.108  0.000  0.000  0.000  0.000  0.000  0.000  0.000  0.000  0.108
 
band  37 # energy   76.91415684 # occ.  0.00000000
 
ion      s     py     pz     px    dxy    dyz    dz2    dxz    dx2    tot
  1  0.000  0.000  0.000  0.000  0.000  0.000  0.000  0.000  0.000  0.000
  2  0.000  0.000  0.000  0.000  0.000  0.000  0.000  0.000  0.000  0.000
tot  0.000  0.000  0.000  0.000  0.000  0.000  0.000  0.000  0.000  0.000
 
band  38 # energy   76.91415684 # occ.  0.00000000
 
ion      s     py     pz     px    dxy    dyz    dz2    dxz    dx2    tot
  1  0.000  0.000  0.000  0.000  0.000  0.000  0.000  0.000  0.000  0.000
  2  0.000  0.000  0.000  0.000  0.000  0.000  0.000  0.000  0.000  0.000
tot  0.000  0.000  0.000  0.000  0.000  0.000  0.000  0.000  0.000  0.000
 
band  39 # energy   77.76734448 # occ.  0.00000000
 
ion      s     py     pz     px    dxy    dyz    dz2    dxz    dx2    tot
  1  0.000  0.020  0.078  0.019  0.000  0.000  0.000  0.000  0.000  0.116
  2  0.000  0.002  0.006  0.002  0.000  0.000  0.000  0.000  0.000  0.010
tot  0.000  0.021  0.084  0.021  0.000  0.000  0.000  0.000  0.000  0.126
 
band  40 # energy   77.76734448 # occ.  0.00000000
 
ion      s     py     pz     px    dxy    dyz    dz2    dxz    dx2    tot
  1  0.000  0.058  0.000  0.058  0.000  0.000  0.000  0.000  0.000  0.116
  2  0.000  0.005  0.000  0.005  0.000  0.000  0.000  0.000  0.000  0.010
tot  0.000  0.063  0.000  0.063  0.000  0.000  0.000  0.000  0.000  0.126
 
band  41 # energy   77.76734450 # occ.  0.00000000
 
ion      s     py     pz     px    dxy    dyz    dz2    dxz    dx2    tot
  1  0.000  0.039  0.039  0.039  0.000  0.000  0.000  0.000  0.000  0.116
  2  0.000  0.003  0.003  0.003  0.000  0.000  0.000  0.000  0.000  0.010
tot  0.000  0.042  0.042  0.042  0.000  0.000  0.000  0.000  0.000  0.126
 
band  42 # energy   79.23032262 # occ.  0.00000000
 
ion      s     py     pz     px    dxy    dyz    dz2    dxz    dx2    tot
  1  0.000  0.000  0.000  0.000  0.000  0.000  0.000  0.000  0.000  0.000
  2  0.000  0.000  0.000  0.000  0.000  0.000  0.000  0.000  0.000  0.000
tot  0.000  0.000  0.000  0.000  0.000  0.000  0.000  0.000  0.000  0.000
 
band  43 # energy   79.23032262 # occ.  0.00000000
 
ion      s     py     pz     px    dxy    dyz    dz2    dxz    dx2    tot
  1  0.000  0.000  0.000  0.000  0.000  0.000  0.000  0.000  0.000  0.000
  2  0.000  0.000  0.000  0.000  0.000  0.000  0.000  0.000  0.000  0.000
tot  0.000  0.000  0.000  0.000  0.000  0.000  0.000  0.000  0.000  0.000
 
band  44 # energy   79.23032265 # occ.  0.00000000
 
ion      s     py     pz     px    dxy    dyz    dz2    dxz    dx2    tot
  1  0.000  0.000  0.000  0.000  0.000  0.000  0.000  0.000  0.000  0.000
  2  0.000  0.000  0.000  0.000  0.000  0.000  0.000  0.000  0.000  0.000
tot  0.000  0.000  0.000  0.000  0.000  0.000  0.000  0.000  0.000  0.000
 
band  45 # energy   79.85466387 # occ.  0.00000000
 
ion      s     py     pz     px    dxy    dyz    dz2    dxz    dx2    tot
  1  0.000  0.087  0.022  0.188  0.000  0.000  0.000  0.000  0.000  0.296
  2  0.000  0.000  0.000  0.000  0.000  0.000  0.000  0.000  0.000  0.000
tot  0.000  0.087  0.022  0.188  0.000  0.000  0.000  0.000  0.000  0.297
 
band  46 # energy   79.85466388 # occ.  0.00000000
 
ion      s     py     pz     px    dxy    dyz    dz2    dxz    dx2    tot
  1  0.000  0.044  0.212  0.040  0.000  0.000  0.000  0.000  0.000  0.296
  2  0.000  0.000  0.000  0.000  0.000  0.000  0.000  0.000  0.000  0.000
tot  0.000  0.044  0.213  0.040  0.000  0.000  0.000  0.000  0.000  0.297
 
band  47 # energy   79.85466388 # occ.  0.00000000
 
ion      s     py     pz     px    dxy    dyz    dz2    dxz    dx2    tot
  1  0.000  0.166  0.063  0.068  0.000  0.000  0.000  0.000  0.000  0.296
  2  0.000  0.000  0.000  0.000  0.000  0.000  0.000  0.000  0.000  0.000
tot  0.000  0.166  0.063  0.068  0.000  0.000  0.000  0.000  0.000  0.297
 
band  48 # energy   80.35151134 # occ.  0.00000000
 
ion      s     py     pz     px    dxy    dyz    dz2    dxz    dx2    tot
  1  0.000  0.000  0.000  0.000  0.000  0.000  0.000  0.000  0.000  0.000
  2  0.000  0.000  0.000  0.000  0.000  0.000  0.000  0.000  0.000  0.000
tot  0.000  0.000  0.000  0.000  0.000  0.000  0.000  0.000  0.000  0.000
 

 k-point    2 :    0.02631579 0.00000000 0.02631579     weight = 0.00416667

band   1 # energy   -7.32805750 # occ.  2.00000000
 
ion      s     py     pz     px    dxy    dyz    dz2    dxz    dx2    tot
  1  0.243  0.000  0.000  0.000  0.000  0.000  0.000  0.000  0.000  0.244
  2  0.252  0.000  0.000  0.000  0.000  0.000  0.000  0.000  0.000  0.252
tot  0.496  0.000  0.000  0.000  0.000  0.000  0.000  0.000  0.000  0.496
 
band   2 # energy    7.88199436 # occ.  2.00000000
 
ion      s     py     pz     px    dxy    dyz    dz2    dxz    dx2    tot
  1  0.002  0.057  0.000  0.000  0.000  0.000  0.000  0.000  0.000  0.059
  2  0.006  0.463  0.000  0.000  0.000  0.000  0.000  0.000  0.000  0.469
tot  0.008  0.520  0.000  0.000  0.000  0.000  0.000  0.000  0.000  0.528
 
band   3 # energy    7.90525181 # occ.  2.00000000
 
ion      s     py     pz     px    dxy    dyz    dz2    dxz    dx2    tot
  1  0.000  0.000  0.030  0.030  0.000  0.000  0.000  0.000  0.000  0.060
  2  0.000  0.000  0.234  0.234  0.000  0.000  0.000  0.000  0.000  0.467
tot  0.000  0.000  0.264  0.264  0.000  0.000  0.000  0.000  0.000  0.528
 
band   4 # energy    7.90525220 # occ.  2.00000000
 
ion      s     py     pz     px    dxy    dyz    dz2    dxz    dx2    tot
  1  0.000  0.000  0.030  0.030  0.000  0.000  0.000  0.000  0.000  0.060
  2  0.000  0.000  0.234  0.234  0.000  0.000  0.000  0.000  0.000  0.467
tot  0.000  0.000  0.264  0.264  0.000  0.000  0.000  0.000  0.000  0.528
 
band   5 # energy   14.05698073 # occ.  0.00000000
 
ion      s     py     pz     px    dxy    dyz    dz2    dxz    dx2    tot
  1  0.122  0.003  0.000  0.000  0.000  0.000  0.000  0.000  0.000  0.125
  2  0.438  0.008  0.000  0.000  0.000  0.000  0.000  0.000  0.000  0.446
tot  0.560  0.011  0.000  0.000  0.000  0.000  0.000  0.000  0.000  0.571
 
band   6 # energy   15.09740247 # occ.  0.00000000
 
ion      s     py     pz     px    dxy    dyz    dz2    dxz    dx2    tot
  1  0.008  0.489  0.000  0.000  0.000  0.000  0.000  0.000  0.000  0.497
  2  0.001  0.011  0.000  0.000  0.000  0.000  0.000  0.000  0.000  0.011
tot  0.008  0.500  0.000  0.000  0.000  0.000  0.000  0.000  0.000  0.508
 
band   7 # energy   15.19933941 # occ.  0.00000000
 
ion      s     py     pz     px    dxy    dyz    dz2    dxz    dx2    tot
  1  0.000  0.000  0.248  0.247  0.000  0.000  0.000  0.000  0.000  0.495
  2  0.000  0.000  0.007  0.007  0.000  0.000  0.000  0.000  0.000  0.014
tot  0.000  0.000  0.255  0.254  0.000  0.000  0.000  0.000  0.000  0.509
 
band   8 # energy   15.19933944 # occ.  0.00000000
 
ion      s     py     pz     px    dxy    dyz    dz2    dxz    dx2    tot
  1  0.000  0.000  0.247  0.248  0.000  0.000  0.000  0.000  0.000  0.495
  2  0.000  0.000  0.007  0.007  0.000  0.000  0.000  0.000  0.000  0.014
tot  0.000  0.000  0.254  0.255  0.000  0.000  0.000  0.000  0.000  0.509
 
band   9 # energy   22.07437237 # occ.  0.00000000
 
ion      s     py     pz     px    dxy    dyz    dz2    dxz    dx2    tot
  1  0.000  0.001  0.000  0.000  0.000  0.000  0.000  0.000  0.000  0.001
  2  0.000  0.003  0.000  0.000  0.000  0.000  0.000  0.000  0.000  0.003
tot  0.000  0.004  0.000  0.000  0.000  0.000  0.000  0.000  0.000  0.005
 
band  10 # energy   22.38215817 # occ.  0.00000000
 
ion      s     py     pz     px    dxy    dyz    dz2    dxz    dx2    tot
  1  0.000  0.000  0.000  0.000  0.000  0.000  0.000  0.000  0.000  0.000
  2  0.000  0.000  0.000  0.000  0.000  0.000  0.000  0.000  0.000  0.000
tot  0.000  0.000  0.000  0.000  0.000  0.000  0.000  0.000  0.000  0.000
 
band  11 # energy   24.24734349 # occ.  0.00000000
 
ion      s     py     pz     px    dxy    dyz    dz2    dxz    dx2    tot
  1  0.360  0.009  0.000  0.000  0.000  0.000  0.000  0.000  0.000  0.370
  2  0.000  0.000  0.000  0.000  0.000  0.000  0.000  0.000  0.000  0.000
tot  0.360  0.010  0.000  0.000  0.000  0.000  0.000  0.000  0.000  0.370
 
band  12 # energy   25.13272201 # occ.  0.00000000
 
ion      s     py     pz     px    dxy    dyz    dz2    dxz    dx2    tot
  1  0.000  0.000  0.008  0.008  0.000  0.000  0.000  0.000  0.000  0.016
  2  0.000  0.000  0.040  0.040  0.000  0.000  0.000  0.000  0.000  0.080
tot  0.000  0.000  0.048  0.048  0.000  0.000  0.000  0.000  0.000  0.096
 
band  13 # energy   25.13272208 # occ.  0.00000000
 
ion      s     py     pz     px    dxy    dyz    dz2    dxz    dx2    tot
  1  0.000  0.000  0.008  0.008  0.000  0.000  0.000  0.000  0.000  0.016
  2  0.000  0.000  0.040  0.040  0.000  0.000  0.000  0.000  0.000  0.080
tot  0.000  0.000  0.048  0.048  0.000  0.000  0.000  0.000  0.000  0.096
 
band  14 # energy   25.36104324 # occ.  0.00000000
 
ion      s     py     pz     px    dxy    dyz    dz2    dxz    dx2    tot
  1  0.017  0.011  0.000  0.000  0.000  0.000  0.000  0.000  0.000  0.028
  2  0.003  0.074  0.000  0.000  0.000  0.000  0.000  0.000  0.000  0.077
tot  0.020  0.085  0.000  0.000  0.000  0.000  0.000  0.000  0.000  0.104
 
band  15 # energy   31.35749405 # occ.  0.00000000
 
ion      s     py     pz     px    dxy    dyz    dz2    dxz    dx2    tot
  1  0.097  0.001  0.000  0.000  0.000  0.000  0.000  0.000  0.000  0.098
  2  0.055  0.004  0.000  0.000  0.000  0.000  0.000  0.000  0.000  0.059
tot  0.153  0.004  0.000  0.000  0.000  0.000  0.000  0.000  0.000  0.157
 
band  16 # energy   41.25610110 # occ.  0.00000000
 
ion      s     py     pz     px    dxy    dyz    dz2    dxz    dx2    tot
  1  0.000  0.000  0.054  0.054  0.000  0.000  0.000  0.000  0.000  0.108
  2  0.000  0.000  0.139  0.139  0.000  0.000  0.000  0.000  0.000  0.277
tot  0.000  0.000  0.193  0.193  0.000  0.000  0.000  0.000  0.000  0.385
 
band  17 # energy   41.25610143 # occ.  0.00000000
 
ion      s     py     pz     px    dxy    dyz    dz2    dxz    dx2    tot
  1  0.000  0.000  0.054  0.054  0.000  0.000  0.000  0.000  0.000  0.108
  2  0.000  0.000  0.139  0.139  0.000  0.000  0.000  0.000  0.000  0.277
tot  0.000  0.000  0.193  0.193  0.000  0.000  0.000  0.000  0.000  0.385
 
band  18 # energy   41.31795705 # occ.  0.00000000
 
ion      s     py     pz     px    dxy    dyz    dz2    dxz    dx2    tot
  1  0.000  0.108  0.000  0.000  0.000  0.000  0.000  0.000  0.000  0.108
  2  0.001  0.278  0.000  0.000  0.000  0.000  0.000  0.000  0.000  0.279
tot  0.002  0.386  0.000  0.000  0.000  0.000  0.000  0.000  0.000  0.387
 
band  19 # energy   49.27801796 # occ.  0.00000000
 
ion      s     py     pz     px    dxy    dyz    dz2    dxz    dx2    tot
  1  0.000  0.000  0.028  0.028  0.000  0.000  0.000  0.000  0.000  0.057
  2  0.000  0.000  0.021  0.021  0.000  0.000  0.000  0.000  0.000  0.042
tot  0.000  0.000  0.049  0.050  0.000  0.000  0.000  0.000  0.000  0.099
 
band  20 # energy   49.27801800 # occ.  0.00000000
 
ion      s     py     pz     px    dxy    dyz    dz2    dxz    dx2    tot
  1  0.000  0.000  0.028  0.028  0.000  0.000  0.000  0.000  0.000  0.057
  2  0.000  0.000  0.021  0.021  0.000  0.000  0.000  0.000  0.000  0.042
tot  0.000  0.000  0.050  0.049  0.000  0.000  0.000  0.000  0.000  0.099
 
band  21 # energy   49.32898226 # occ.  0.00000000
 
ion      s     py     pz     px    dxy    dyz    dz2    dxz    dx2    tot
  1  0.000  0.056  0.000  0.000  0.000  0.000  0.000  0.000  0.000  0.057
  2  0.000  0.033  0.000  0.000  0.000  0.000  0.000  0.000  0.000  0.033
tot  0.001  0.089  0.000  0.000  0.000  0.000  0.000  0.000  0.000  0.090
 
band  22 # energy   50.35508537 # occ.  0.00000000
 
ion      s     py     pz     px    dxy    dyz    dz2    dxz    dx2    tot
  1  0.000  0.000  0.000  0.000  0.000  0.000  0.000  0.000  0.000  0.000
  2  0.000  0.000  0.000  0.000  0.000  0.000  0.000  0.000  0.000  0.000
tot  0.000  0.000  0.000  0.000  0.000  0.000  0.000  0.000  0.000  0.000
 
band  23 # energy   50.94924317 # occ.  0.00000000
 
ion      s     py     pz     px    dxy    dyz    dz2    dxz    dx2    tot
  1  0.000  0.002  0.000  0.000  0.000  0.000  0.000  0.000  0.000  0.002
  2  0.000  0.006  0.000  0.000  0.000  0.000  0.000  0.000  0.000  0.006
tot  0.000  0.007  0.000  0.000  0.000  0.000  0.000  0.000  0.000  0.007
 
band  24 # energy   55.05112883 # occ.  0.00000000
 
ion      s     py     pz     px    dxy    dyz    dz2    dxz    dx2    tot
  1  0.000  0.000  0.001  0.001  0.000  0.000  0.000  0.000  0.000  0.002
  2  0.000  0.000  0.000  0.000  0.000  0.000  0.000  0.000  0.000  0.000
tot  0.000  0.000  0.001  0.001  0.000  0.000  0.000  0.000  0.000  0.002
 
band  25 # energy   55.05112885 # occ.  0.00000000
 
ion      s     py     pz     px    dxy    dyz    dz2    dxz    dx2    tot
  1  0.000  0.000  0.001  0.001  0.000  0.000  0.000  0.000  0.000  0.002
  2  0.000  0.000  0.000  0.000  0.000  0.000  0.000  0.000  0.000  0.000
tot  0.000  0.000  0.001  0.001  0.000  0.000  0.000  0.000  0.000  0.002
 
band  26 # energy   55.35302208 # occ.  0.00000000
 
ion      s     py     pz     px    dxy    dyz    dz2    dxz    dx2    tot
  1  0.000  0.000  0.000  0.000  0.000  0.000  0.000  0.000  0.000  0.000
  2  0.000  0.000  0.000  0.000  0.000  0.000  0.000  0.000  0.000  0.000
tot  0.000  0.000  0.000  0.000  0.000  0.000  0.000  0.000  0.000  0.000
 
band  27 # energy   66.23175999 # occ.  0.00000000
 
ion      s     py     pz     px    dxy    dyz    dz2    dxz    dx2    tot
  1  0.165  0.022  0.000  0.000  0.000  0.000  0.000  0.000  0.000  0.186
  2  0.076  0.027  0.000  0.000  0.000  0.000  0.000  0.000  0.000  0.103
tot  0.240  0.049  0.000  0.000  0.000  0.000  0.000  0.000  0.000  0.289
 
band  28 # energy   67.39817050 # occ.  0.00000000
 
ion      s     py     pz     px    dxy    dyz    dz2    dxz    dx2    tot
  1  0.000  0.000  0.071  0.071  0.000  0.000  0.000  0.000  0.000  0.142
  2  0.000  0.000  0.033  0.033  0.000  0.000  0.000  0.000  0.000  0.066
tot  0.000  0.000  0.104  0.104  0.000  0.000  0.000  0.000  0.000  0.208
 
band  29 # energy   67.39817060 # occ.  0.00000000
 
ion      s     py     pz     px    dxy    dyz    dz2    dxz    dx2    tot
  1  0.000  0.000  0.071  0.071  0.000  0.000  0.000  0.000  0.000  0.142
  2  0.000  0.000  0.033  0.033  0.000  0.000  0.000  0.000  0.000  0.066
tot  0.000  0.000  0.104  0.104  0.000  0.000  0.000  0.000  0.000  0.208
 
band  30 # energy   67.78439046 # occ.  0.00000000
 
ion      s     py     pz     px    dxy    dyz    dz2    dxz    dx2    tot
  1  0.058  0.115  0.000  0.000  0.000  0.000  0.000  0.000  0.000  0.173
  2  0.050  0.044  0.000  0.000  0.000  0.000  0.000  0.000  0.000  0.094
tot  0.108  0.159  0.000  0.000  0.000  0.000  0.000  0.000  0.000  0.267
 
band  31 # energy   70.05792306 # occ.  0.00000000
 
ion      s     py     pz     px    dxy    dyz    dz2    dxz    dx2    tot
  1  0.000  0.013  0.000  0.000  0.000  0.000  0.000  0.000  0.000  0.013
  2  0.000  0.015  0.000  0.000  0.000  0.000  0.000  0.000  0.000  0.015
tot  0.001  0.027  0.000  0.000  0.000  0.000  0.000  0.000  0.000  0.028
 
band  32 # energy   70.50102489 # occ.  0.00000000
 
ion      s     py     pz     px    dxy    dyz    dz2    dxz    dx2    tot
  1  0.000  0.000  0.035  0.035  0.000  0.000  0.000  0.000  0.000  0.070
  2  0.000  0.000  0.019  0.019  0.000  0.000  0.000  0.000  0.000  0.038
tot  0.000  0.000  0.054  0.054  0.000  0.000  0.000  0.000  0.000  0.108
 
band  33 # energy   70.50102493 # occ.  0.00000000
 
ion      s     py     pz     px    dxy    dyz    dz2    dxz    dx2    tot
  1  0.000  0.000  0.035  0.035  0.000  0.000  0.000  0.000  0.000  0.070
  2  0.000  0.000  0.019  0.019  0.000  0.000  0.000  0.000  0.000  0.038
tot  0.000  0.000  0.054  0.054  0.000  0.000  0.000  0.000  0.000  0.108
 
band  34 # energy   70.76279219 # occ.  0.00000000
 
ion      s     py     pz     px    dxy    dyz    dz2    dxz    dx2    tot
  1  0.000  0.000  0.000  0.000  0.000  0.000  0.000  0.000  0.000  0.000
  2  0.000  0.000  0.000  0.000  0.000  0.000  0.000  0.000  0.000  0.000
tot  0.000  0.000  0.000  0.000  0.000  0.000  0.000  0.000  0.000  0.000
 
band  35 # energy   70.77103142 # occ.  0.00000000
 
ion      s     py     pz     px    dxy    dyz    dz2    dxz    dx2    tot
  1  0.001  0.079  0.000  0.000  0.000  0.000  0.000  0.000  0.000  0.080
  2  0.000  0.017  0.000  0.000  0.000  0.000  0.000  0.000  0.000  0.017
tot  0.001  0.096  0.000  0.000  0.000  0.000  0.000  0.000  0.000  0.098
 
band  36 # energy   76.34951077 # occ.  0.00000000
 
ion      s     py     pz     px    dxy    dyz    dz2    dxz    dx2    tot
  1  0.001  0.011  0.000  0.000  0.000  0.000  0.000  0.000  0.000  0.012
  2  0.005  0.001  0.000  0.000  0.000  0.000  0.000  0.000  0.000  0.006
tot  0.006  0.012  0.000  0.000  0.000  0.000  0.000  0.000  0.000  0.018
 
band  37 # energy   76.71509994 # occ.  0.00000000
 
ion      s     py     pz     px    dxy    dyz    dz2    dxz    dx2    tot
  1  0.000  0.000  0.000  0.000  0.000  0.000  0.000  0.000  0.000  0.000