<?xml version="1.0" encoding="ISO-8859-1"?>
<modeling>
 <generator>
  <i name="program" type="string">vasp </i>
  <i name="version" type="string">5.3.5  </i>
  <i name="subversion" type="string">31Mar14 (build Oct 01 2015 16:19:09) complex                          parallel </i>
  <i name="platform" type="string">LinuxIFC </i>
  <i name="date" type="string">2023 05 07 </i>
  <i name="time" type="string">18:19:59 </i>
 </generator>
 <incar>
  <i type="int" name="ISTART">     1</i>
  <i type="string" name="PREC">accurate       (precision level)</i>
  <i type="logical" name="ADDGRID"> T  </i>
  <i type="int" name="ICHARG">    11</i>
  <i type="int" name="NELM">    60</i>
  <i type="int" name="IBRION">    -1</i>
  <i name="EDIFF">      0.00000100</i>
  <i name="EDIFFG">     -0.02000000</i>
  <i type="int" name="NSW">     0</i>
  <i name="ENCUT">    520.00000000</i>
  <i type="logical" name="LREAL"> F  </i>
  <i type="int" name="ISMEAR">     0</i>
  <i name="SIGMA">      0.10000000</i>
  <i type="logical" name="LORBIT"> F  </i>
  <i type="int" name="NELM">    60</i>
 </incar>
 <kpoints>
  <generation param="listgenerated">
   <i name="divisions" type="int">      20 </i>
   <v>       0.00000000       0.00000000       0.00000000 </v>
   <v>       0.50000000       0.00000000       0.50000000 </v>
   <v>       0.37500000       0.37500000       0.75000000 </v>
   <v>       0.00000000       0.00000000       0.00000000 </v>
   <v>       0.50000000       0.50000000       0.50000000 </v>
   <v>       0.50000000       0.25000000       0.75000000 </v>
   <v>       0.00000000       0.00000000       0.00000000 </v>
   <v>      -0.50000000       0.00000000      -0.50000000 </v>
   <v>      -0.37500000      -0.37500000      -0.75000000 </v>
   <v>       0.00000000       0.00000000       0.00000000 </v>
   <v>      -0.50000000      -0.50000000      -0.50000000 </v>
   <v>      -0.50000000      -0.25000000      -0.75000000 </v>
   <v>      -0.50000000       0.00000000      -0.50000000 </v>
  </generation>
  <varray name="kpointlist" >
   <v>       0.00000000       0.00000000       0.00000000 </v>
   <v>       0.02631579       0.00000000       0.02631579 </v>
   <v>       0.05263158       0.00000000       0.05263158 </v>
   <v>       0.07894737       0.00000000       0.07894737 </v>
   <v>       0.10526316       0.00000000       0.10526316 </v>
   <v>       0.13157895       0.00000000       0.13157895 </v>
   <v>       0.15789474       0.00000000       0.15789474 </v>
   <v>       0.18421053       0.00000000       0.18421053 </v>
   <v>       0.21052632       0.00000000       0.21052632 </v>
   <v>       0.23684211       0.00000000       0.23684211 </v>
   <v>       0.26315789       0.00000000       0.26315789 </v>
   <v>       0.28947368       0.00000000       0.28947368 </v>
   <v>       0.31578947       0.00000000       0.31578947 </v>
   <v>       0.34210526       0.00000000       0.34210526 </v>
   <v>       0.36842105       0.00000000       0.36842105 </v>
   <v>       0.39473684       0.00000000       0.39473684 </v>
   <v>       0.42105263       0.00000000       0.42105263 </v>
   <v>       0.44736842       0.00000000       0.44736842 </v>
   <v>       0.47368421       0.00000000       0.47368421 </v>
   <v>       0.50000000       0.00000000       0.50000000 </v>
   <v>       0.50000000       0.00000000       0.50000000 </v>
   <v>       0.50657895       0.01315789       0.50657895 </v>
   <v>       0.51315789       0.02631579       0.51315789 </v>
   <v>       0.51973684       0.03947368       0.51973684 </v>
   <v>       0.52631579       0.05263158       0.52631579 </v>
   <v>       0.53289474       0.06578947       0.53289474 </v>
   <v>       0.53947368       0.07894737       0.53947368 </v>
   <v>       0.54605263       0.09210526       0.54605263 </v>
   <v>       0.55263158       0.10526316       0.55263158 </v>
   <v>       0.55921053       0.11842105       0.55921053 </v>
   <v>       0.56578947       0.13157895       0.56578947 </v>
   <v>       0.57236842       0.14473684       0.57236842 </v>
   <v>       0.57894737       0.15789474       0.57894737 </v>
   <v>       0.58552632       0.17105263       0.58552632 </v>
   <v>       0.59210526       0.18421053       0.59210526 </v>
   <v>       0.59868421       0.19736842       0.59868421 </v>
   <v>       0.60526316       0.21052632       0.60526316 </v>
   <v>       0.61184211       0.22368421       0.61184211 </v>
   <v>       0.61842105       0.23684211       0.61842105 </v>
   <v>       0.62500000       0.25000000       0.62500000 </v>
   <v>       0.37500000       0.37500000       0.75000000 </v>
   <v>       0.35526316       0.35526316       0.71052632 </v>
   <v>       0.33552632       0.33552632       0.67105263 </v>
   <v>       0.31578947       0.31578947       0.63157895 </v>
   <v>       0.29605263       0.29605263       0.59210526 </v>
   <v>       0.27631579       0.27631579       0.55263158 </v>
   <v>       0.25657895       0.25657895       0.51315789 </v>
   <v>       0.23684211       0.23684211       0.47368421 </v>
   <v>       0.21710526       0.21710526       0.43421053 </v>
   <v>       0.19736842       0.19736842       0.39473684 </v>
   <v>       0.17763158       0.17763158       0.35526316 </v>
   <v>       0.15789474       0.15789474       0.31578947 </v>
   <v>       0.13815789       0.13815789       0.27631579 </v>
   <v>       0.11842105       0.11842105       0.23684211 </v>
   <v>       0.09868421       0.09868421       0.19736842 </v>
   <v>       0.07894737       0.07894737       0.15789474 </v>
   <v>       0.05921053       0.05921053       0.11842105 </v>
   <v>       0.03947368       0.03947368       0.07894737 </v>
   <v>       0.01973684       0.01973684       0.03947368 </v>
   <v>       0.00000000       0.00000000       0.00000000 </v>
   <v>       0.00000000       0.00000000       0.00000000 </v>
   <v>       0.02631579       0.02631579       0.02631579 </v>
   <v>       0.05263158       0.05263158       0.05263158 </v>
   <v>       0.07894737       0.07894737       0.07894737 </v>
   <v>       0.10526316       0.10526316       0.10526316 </v>
   <v>       0.13157895       0.13157895       0.13157895 </v>
   <v>       0.15789474       0.15789474       0.15789474 </v>
   <v>       0.18421053       0.18421053       0.18421053 </v>
   <v>       0.21052632       0.21052632       0.21052632 </v>
   <v>       0.23684211       0.23684211       0.23684211 </v>
   <v>       0.26315789       0.26315789       0.26315789 </v>
   <v>       0.28947368       0.28947368       0.28947368 </v>
   <v>       0.31578947       0.31578947       0.31578947 </v>
   <v>       0.34210526       0.34210526       0.34210526 </v>
   <v>       0.36842105       0.36842105       0.36842105 </v>
   <v>       0.39473684       0.39473684       0.39473684 </v>
   <v>       0.42105263       0.42105263       0.42105263 </v>
   <v>       0.44736842       0.44736842       0.44736842 </v>
   <v>       0.47368421       0.47368421       0.47368421 </v>
   <v>       0.50000000       0.50000000       0.50000000 </v>
   <v>       0.50000000       0.50000000       0.50000000 </v>
   <v>       0.50000000       0.48684211       0.51315789 </v>
   <v>       0.50000000       0.47368421       0.52631579 </v>
   <v>       0.50000000       0.46052632       0.53947368 </v>
   <v>       0.50000000       0.44736842       0.55263158 </v>
   <v>       0.50000000       0.43421053       0.56578947 </v>
   <v>       0.50000000       0.42105263       0.57894737 </v>
   <v>       0.50000000       0.40789474       0.59210526 </v>
   <v>       0.50000000       0.39473684       0.60526316 </v>
   <v>       0.50000000       0.38157895       0.61842105 </v>
   <v>       0.50000000       0.36842105       0.63157895 </v>
   <v>       0.50000000       0.35526316       0.64473684 </v>
   <v>       0.50000000       0.34210526       0.65789474 </v>
   <v>       0.50000000       0.32894737       0.67105263 </v>
   <v>       0.50000000       0.31578947       0.68421053 </v>
   <v>       0.50000000       0.30263158       0.69736842 </v>
   <v>       0.50000000       0.28947368       0.71052632 </v>
   <v>       0.50000000       0.27631579       0.72368421 </v>
   <v>       0.50000000       0.26315789       0.73684211 </v>
   <v>       0.50000000       0.25000000       0.75000000 </v>
   <v>       0.50000000       0.25000000       0.75000000 </v>
   <v>       0.50000000       0.23684211       0.73684211 </v>
   <v>       0.50000000       0.22368421       0.72368421 </v>
   <v>       0.50000000       0.21052632       0.71052632 </v>
   <v>       0.50000000       0.19736842       0.69736842 </v>
   <v>       0.50000000       0.18421053       0.68421053 </v>
   <v>       0.50000000       0.17105263       0.67105263 </v>
   <v>       0.50000000       0.15789474       0.65789474 </v>
   <v>       0.50000000       0.14473684       0.64473684 </v>
   <v>       0.50000000       0.13157895       0.63157895 </v>
   <v>       0.50000000       0.11842105       0.61842105 </v>
   <v>       0.50000000       0.10526316       0.60526316 </v>
   <v>       0.50000000       0.09210526       0.59210526 </v>
   <v>       0.50000000       0.07894737       0.57894737 </v>
   <v>       0.50000000       0.06578947       0.56578947 </v>
   <v>       0.50000000       0.05263158       0.55263158 </v>
   <v>       0.50000000       0.03947368       0.53947368 </v>
   <v>       0.50000000       0.02631579       0.52631579 </v>
   <v>       0.50000000       0.01315789       0.51315789 </v>
   <v>       0.50000000       0.00000000       0.50000000 </v>
   <v>       0.00000000       0.00000000       0.00000000 </v>
   <v>      -0.02631579       0.00000000      -0.02631579 </v>
   <v>      -0.05263158       0.00000000      -0.05263158 </v>
   <v>      -0.07894737       0.00000000      -0.07894737 </v>
   <v>      -0.10526316       0.00000000      -0.10526316 </v>
   <v>      -0.13157895       0.00000000      -0.13157895 </v>
   <v>      -0.15789474       0.00000000      -0.15789474 </v>
   <v>      -0.18421053       0.00000000      -0.18421053 </v>
   <v>      -0.21052632       0.00000000      -0.21052632 </v>
   <v>      -0.23684211       0.00000000      -0.23684211 </v>
   <v>      -0.26315789       0.00000000      -0.26315789 </v>
   <v>      -0.28947368       0.00000000      -0.28947368 </v>
   <v>      -0.31578947       0.00000000      -0.31578947 </v>
   <v>      -0.34210526       0.00000000      -0.34210526 </v>
   <v>      -0.36842105       0.00000000      -0.36842105 </v>
   <v>      -0.39473684       0.00000000      -0.39473684 </v>
   <v>      -0.42105263       0.00000000      -0.42105263 </v>
   <v>      -0.44736842       0.00000000      -0.44736842 </v>
   <v>      -0.47368421       0.00000000      -0.47368421 </v>
   <v>      -0.50000000       0.00000000      -0.50000000 </v>
   <v>      -0.50000000       0.00000000      -0.50000000 </v>
   <v>      -0.50657895      -0.01315789      -0.50657895 </v>
   <v>      -0.51315789      -0.02631579      -0.51315789 </v>
   <v>      -0.51973684      -0.03947368      -0.51973684 </v>
   <v>      -0.52631579      -0.05263158      -0.52631579 </v>
   <v>      -0.53289474      -0.06578947      -0.53289474 </v>
   <v>      -0.53947368      -0.07894737      -0.53947368 </v>
   <v>      -0.54605263      -0.09210526      -0.54605263 </v>
   <v>      -0.55263158      -0.10526316      -0.55263158 </v>
   <v>      -0.55921053      -0.11842105      -0.55921053 </v>
   <v>      -0.56578947      -0.13157895      -0.56578947 </v>
   <v>      -0.57236842      -0.14473684      -0.57236842 </v>
   <v>      -0.57894737      -0.15789474      -0.57894737 </v>
   <v>      -0.58552632      -0.17105263      -0.58552632 </v>
   <v>      -0.59210526      -0.18421053      -0.59210526 </v>
   <v>      -0.59868421      -0.19736842      -0.59868421 </v>
   <v>      -0.60526316      -0.21052632      -0.60526316 </v>
   <v>      -0.61184211      -0.22368421      -0.61184211 </v>
   <v>      -0.61842105      -0.23684211      -0.61842105 </v>
   <v>      -0.62500000      -0.25000000      -0.62500000 </v>
   <v>      -0.37500000      -0.37500000      -0.75000000 </v>
   <v>      -0.35526316      -0.35526316      -0.71052632 </v>
   <v>      -0.33552632      -0.33552632      -0.67105263 </v>
   <v>      -0.31578947      -0.31578947      -0.63157895 </v>
   <v>      -0.29605263      -0.29605263      -0.59210526 </v>
   <v>      -0.27631579      -0.27631579      -0.55263158 </v>
   <v>      -0.25657895      -0.25657895      -0.51315789 </v>
   <v>      -0.23684211      -0.23684211      -0.47368421 </v>
   <v>      -0.21710526      -0.21710526      -0.43421053 </v>
   <v>      -0.19736842      -0.19736842      -0.39473684 </v>
   <v>      -0.17763158      -0.17763158      -0.35526316 </v>
   <v>      -0.15789474      -0.15789474      -0.31578947 </v>
   <v>      -0.13815789      -0.13815789      -0.27631579 </v>
   <v>      -0.11842105      -0.11842105      -0.23684211 </v>
   <v>      -0.09868421      -0.09868421      -0.19736842 </v>
   <v>      -0.07894737      -0.07894737      -0.15789474 </v>
   <v>      -0.05921053      -0.05921053      -0.11842105 </v>
   <v>      -0.03947368      -0.03947368      -0.07894737 </v>
   <v>      -0.01973684      -0.01973684      -0.03947368 </v>
   <v>       0.00000000       0.00000000       0.00000000 </v>
   <v>       0.00000000       0.00000000       0.00000000 </v>
   <v>      -0.02631579      -0.02631579      -0.02631579 </v>
   <v>      -0.05263158      -0.05263158      -0.05263158 </v>
   <v>      -0.07894737      -0.07894737      -0.07894737 </v>
   <v>      -0.10526316      -0.10526316      -0.10526316 </v>
   <v>      -0.13157895      -0.13157895      -0.13157895 </v>
   <v>      -0.15789474      -0.15789474      -0.15789474 </v>
   <v>      -0.18421053      -0.18421053      -0.18421053 </v>
   <v>      -0.21052632      -0.21052632      -0.21052632 </v>
   <v>      -0.23684211      -0.23684211      -0.23684211 </v>
   <v>      -0.26315789      -0.26315789      -0.26315789 </v>
   <v>      -0.28947368      -0.28947368      -0.28947368 </v>
   <v>      -0.31578947      -0.31578947      -0.31578947 </v>
   <v>      -0.34210526      -0.34210526      -0.34210526 </v>
   <v>      -0.36842105      -0.36842105      -0.36842105 </v>
   <v>      -0.39473684      -0.39473684      -0.39473684 </v>
   <v>      -0.42105263      -0.42105263      -0.42105263 </v>
   <v>      -0.44736842      -0.44736842      -0.44736842 </v>
   <v>      -0.47368421      -0.47368421      -0.47368421 </v>
   <v>      -0.50000000      -0.50000000      -0.50000000 </v>
   <v>      -0.50000000      -0.50000000      -0.50000000 </v>
   <v>      -0.50000000      -0.48684211      -0.51315789 </v>
   <v>      -0.50000000      -0.47368421      -0.52631579 </v>
   <v>      -0.50000000      -0.46052632      -0.53947368 </v>
   <v>      -0.50000000      -0.44736842      -0.55263158 </v>
   <v>      -0.50000000      -0.43421053      -0.56578947 </v>
   <v>      -0.50000000      -0.42105263      -0.57894737 </v>
   <v>      -0.50000000      -0.40789474      -0.59210526 </v>
   <v>      -0.50000000      -0.39473684      -0.60526316 </v>
   <v>      -0.50000000      -0.38157895      -0.61842105 </v>
   <v>      -0.50000000      -0.36842105      -0.63157895 </v>
   <v>      -0.50000000      -0.35526316      -0.64473684 </v>
   <v>      -0.50000000      -0.34210526      -0.65789474 </v>
   <v>      -0.50000000      -0.32894737      -0.67105263 </v>
   <v>      -0.50000000      -0.31578947      -0.68421053 </v>
   <v>      -0.50000000      -0.30263158      -0.69736842 </v>
   <v>      -0.50000000      -0.28947368      -0.71052632 </v>
   <v>      -0.50000000      -0.27631579      -0.72368421 </v>
   <v>      -0.50000000      -0.26315789      -0.73684211 </v>
   <v>      -0.50000000      -0.25000000      -0.75000000 </v>
   <v>      -0.50000000      -0.25000000      -0.75000000 </v>
   <v>      -0.50000000      -0.23684211      -0.73684211 </v>
   <v>      -0.50000000      -0.22368421      -0.72368421 </v>
   <v>      -0.50000000      -0.21052632      -0.71052632 </v>
   <v>      -0.50000000      -0.19736842      -0.69736842 </v>
   <v>      -0.50000000      -0.18421053      -0.68421053 </v>
   <v>      -0.50000000      -0.17105263      -0.67105263 </v>
   <v>      -0.50000000      -0.15789474      -0.65789474 </v>
   <v>      -0.50000000      -0.14473684      -0.64473684 </v>
   <v>      -0.50000000      -0.13157895      -0.63157895 </v>
   <v>      -0.50000000      -0.11842105      -0.61842105 </v>
   <v>      -0.50000000      -0.10526316      -0.60526316 </v>
   <v>      -0.50000000      -0.09210526      -0.59210526 </v>
   <v>      -0.50000000      -0.07894737      -0.57894737 </v>
   <v>      -0.50000000      -0.06578947      -0.56578947 </v>
   <v>      -0.50000000      -0.05263158      -0.55263158 </v>
   <v>      -0.50000000      -0.03947368      -0.53947368 </v>
   <v>      -0.50000000      -0.02631579      -0.52631579 </v>
   <v>      -0.50000000      -0.01315789      -0.51315789 </v>
   <v>      -0.50000000       0.00000000      -0.50000000 </v>
  </varray>
  <varray name="weights" >
   <v>       0.00416667 </v>
   <v>       0.00416667 </v>
   <v>       0.00416667 </v>
   <v>       0.00416667 </v>
   <v>       0.00416667 </v>
   <v>       0.00416667 </v>
   <v>       0.00416667 </v>
   <v>       0.00416667 </v>
   <v>       0.00416667 </v>
   <v>       0.00416667 </v>
   <v>       0.00416667 </v>
   <v>       0.00416667 </v>
   <v>       0.00416667 </v>
   <v>       0.00416667 </v>
   <v>       0.00416667 </v>
   <v>       0.00416667 </v>
   <v>       0.00416667 </v>
   <v>       0.00416667 </v>
   <v>       0.00416667 </v>
   <v>       0.00416667 </v>
   <v>       0.00416667 </v>
   <v>       0.00416667 </v>
   <v>       0.00416667 </v>
   <v>       0.00416667 </v>
   <v>       0.00416667 </v>
   <v>       0.00416667 </v>
   <v>       0.00416667 </v>
   <v>       0.00416667 </v>
   <v>       0.00416667 </v>
   <v>       0.00416667 </v>
   <v>       0.00416667 </v>
   <v>       0.00416667 </v>
   <v>       0.00416667 </v>
   <v>       0.00416667 </v>
   <v>       0.00416667 </v>
   <v>       0.00416667 </v>
   <v>       0.00416667 </v>
   <v>       0.00416667 </v>
   <v>       0.00416667 </v>
   <v>       0.00416667 </v>
   <v>       0.00416667 </v>
   <v>       0.00416667 </v>
   <v>       0.00416667 </v>
   <v>       0.00416667 </v>
   <v>       0.00416667 </v>
   <v>       0.00416667 </v>
   <v>       0.00416667 </v>
   <v>       0.00416667 </v>
   <v>       0.00416667 </v>
   <v>       0.00416667 </v>
   <v>       0.00416667 </v>
   <v>       0.00416667 </v>
   <v>       0.00416667 </v>
   <v>       0.00416667 </v>
   <v>       0.00416667 </v>
   <v>       0.00416667 </v>
   <v>       0.00416667 </v>
   <v>       0.00416667 </v>
   <v>       0.00416667 </v>
   <v>       0.00416667 </v>
   <v>       0.00416667 </v>
   <v>       0.00416667 </v>
   <v>       0.00416667 </v>
   <v>       0.00416667 </v>
   <v>       0.00416667 </v>
   <v>       0.00416667 </v>
   <v>       0.00416667 </v>
   <v>       0.00416667 </v>
   <v>       0.00416667 </v>
   <v>       0.00416667 </v>
   <v>       0.00416667 </v>
   <v>       0.00416667 </v>
   <v>       0.00416667 </v>
   <v>       0.00416667 </v>
   <v>       0.00416667 </v>
   <v>       0.00416667 </v>
   <v>       0.00416667 </v>
   <v>       0.00416667 </v>
   <v>       0.00416667 </v>
   <v>       0.00416667 </v>
   <v>       0.00416667 </v>
   <v>       0.00416667 </v>
   <v>       0.00416667 </v>
   <v>       0.00416667 </v>
   <v>       0.00416667 </v>
   <v>       0.00416667 </v>
   <v>       0.00416667 </v>
   <v>       0.00416667 </v>
   <v>       0.00416667 </v>
   <v>       0.00416667 </v>
   <v>       0.00416667 </v>
   <v>       0.00416667 </v>
   <v>       0.00416667 </v>
   <v>       0.00416667 </v>
   <v>       0.00416667 </v>
   <v>       0.00416667 </v>
   <v>       0.00416667 </v>
   <v>       0.00416667 </v>
   <v>       0.00416667 </v>
   <v>       0.00416667 </v>
   <v>       0.00416667 </v>
   <v>       0.00416667 </v>
   <v>       0.00416667 </v>
   <v>       0.00416667 </v>
   <v>       0.00416667 </v>
   <v>       0.00416667 </v>
   <v>       0.00416667 </v>
   <v>       0.00416667 </v>
   <v>       0.00416667 </v>
   <v>       0.00416667 </v>
   <v>       0.00416667 </v>
   <v>       0.00416667 </v>
   <v>       0.00416667 </v>
   <v>       0.00416667 </v>
   <v>       0.00416667 </v>
   <v>       0.00416667 </v>
   <v>       0.00416667 </v>
   <v>       0.00416667 </v>
   <v>       0.00416667 </v>
   <v>       0.00416667 </v>
   <v>       0.00416667 </v>
   <v>       0.00416667 </v>
   <v>       0.00416667 </v>
   <v>       0.00416667 </v>
   <v>       0.00416667 </v>
   <v>       0.00416667 </v>
   <v>       0.00416667 </v>
   <v>       0.00416667 </v>
   <v>       0.00416667 </v>
   <v>       0.00416667 </v>
   <v>       0.00416667 </v>
   <v>       0.00416667 </v>
   <v>       0.00416667 </v>
   <v>       0.00416667 </v>
   <v>       0.00416667 </v>
   <v>       0.00416667 </v>
   <v>       0.00416667 </v>
   <v>       0.00416667 </v>
   <v>       0.00416667 </v>
   <v>       0.00416667 </v>
   <v>       0.00416667 </v>
   <v>       0.00416667 </v>
   <v>       0.00416667 </v>
   <v>       0.00416667 </v>
   <v>       0.00416667 </v>
   <v>       0.00416667 </v>
   <v>       0.00416667 </v>
   <v>       0.00416667 </v>
   <v>       0.00416667 </v>
   <v>       0.00416667 </v>
   <v>       0.00416667 </v>
   <v>       0.00416667 </v>
   <v>       0.00416667 </v>
   <v>       0.00416667 </v>
   <v>       0.00416667 </v>
   <v>       0.00416667 </v>
   <v>       0.00416667 </v>
   <v>       0.00416667 </v>
   <v>       0.00416667 </v>
   <v>       0.00416667 </v>
   <v>       0.00416667 </v>
   <v>       0.00416667 </v>
   <v>       0.00416667 </v>
   <v>       0.00416667 </v>
   <v>       0.00416667 </v>
   <v>       0.00416667 </v>
   <v>       0.00416667 </v>
   <v>       0.00416667 </v>
   <v>       0.00416667 </v>
   <v>       0.00416667 </v>
   <v>       0.00416667 </v>
   <v>       0.00416667 </v>
   <v>       0.00416667 </v>
   <v>       0.00416667 </v>
   <v>       0.00416667 </v>
   <v>       0.00416667 </v>
   <v>       0.00416667 </v>
   <v>       0.00416667 </v>
   <v>       0.00416667 </v>
   <v>       0.00416667 </v>
   <v>       0.00416667 </v>
   <v>       0.00416667 </v>
   <v>       0.00416667 </v>
   <v>       0.00416667 </v>
   <v>       0.00416667 </v>
   <v>       0.00416667 </v>
   <v>       0.00416667 </v>
   <v>       0.00416667 </v>
   <v>       0.00416667 </v>
   <v>       0.00416667 </v>
   <v>       0.00416667 </v>
   <v>       0.00416667 </v>
   <v>       0.00416667 </v>
   <v>       0.00416667 </v>
   <v>       0.00416667 </v>
   <v>       0.00416667 </v>
   <v>       0.00416667 </v>
   <v>       0.00416667 </v>
   <v>       0.00416667 </v>
   <v>       0.00416667 </v>
   <v>       0.00416667 </v>
   <v>       0.00416667 </v>
   <v>       0.00416667 </v>
   <v>       0.00416667 </v>
   <v>       0.00416667 </v>
   <v>       0.00416667 </v>
   <v>       0.00416667 </v>
   <v>       0.00416667 </v>
   <v>       0.00416667 </v>
   <v>       0.00416667 </v>
   <v>       0.00416667 </v>
   <v>       0.00416667 </v>
   <v>       0.00416667 </v>
   <v>       0.00416667 </v>
   <v>       0.00416667 </v>
   <v>       0.00416667 </v>
   <v>       0.00416667 </v>
   <v>       0.00416667 </v>
   <v>       0.00416667 </v>
   <v>       0.00416667 </v>
   <v>       0.00416667 </v>
   <v>       0.00416667 </v>
   <v>       0.00416667 </v>
   <v>       0.00416667 </v>
   <v>       0.00416667 </v>
   <v>       0.00416667 </v>
   <v>       0.00416667 </v>
   <v>       0.00416667 </v>
   <v>       0.00416667 </v>
   <v>       0.00416667 </v>
   <v>       0.00416667 </v>
   <v>       0.00416667 </v>
   <v>       0.00416667 </v>
   <v>       0.00416667 </v>
   <v>       0.00416667 </v>
   <v>       0.00416667 </v>
   <v>       0.00416667 </v>
   <v>       0.00416667 </v>
   <v>       0.00416667 </v>
   <v>       0.00416667 </v>
  </varray>
 </kpoints>
 <parameters>
  <separator name="general" >
   <i type="string" name="SYSTEM">unknown system</i>
   <i type="logical" name="LCOMPAT"> F  </i>
  </separator>
  <separator name="electronic" >
   <i type="string" name="PREC">accura</i>
   <i name="ENMAX">    520.00000000</i>
   <i name="ENAUG">    644.87300000</i>
   <i name="EDIFF">      0.00000100</i>
   <i type="int" name="IALGO">    38</i>
   <i type="int" name="IWAVPR">    10</i>
   <i type="int" name="NBANDS">    48</i>
   <i name="NELECT">      8.00000000</i>
   <i type="int" name="TURBO">     0</i>
   <i type="int" name="IRESTART">     0</i>
   <i type="int" name="NREBOOT">     0</i>
   <i type="int" name="NMIN">     0</i>
   <i name="EREF">      0.00000000</i>
   <separator name="electronic smearing" >
    <i type="int" name="ISMEAR">     0</i>
    <i name="SIGMA">      0.10000000</i>
    <i name="KSPACING">      0.50000000</i>
    <i type="logical" name="KGAMMA"> T  </i>
   </separator>
   <separator name="electronic projectors" >
    <i type="logical" name="LREAL"> F  </i>
    <v name="ROPT">      0.00000000      0.00000000</v>
    <i type="int" name="LMAXPAW">  -100</i>
    <i type="int" name="LMAXMIX">     2</i>
    <i type="logical" name="NLSPLINE"> F  </i>
   </separator>
   <separator name="electronic startup" >
    <i type="int" name="ISTART">     0</i>
    <i type="int" name="ICHARG">    11</i>
    <i type="int" name="INIWAV">     1</i>
   </separator>
   <separator name="electronic spin" >
    <i type="int" name="ISPIN">     1</i>
    <i type="logical" name="LNONCOLLINEAR"> F  </i>
    <v name="MAGMOM">      1.00000000      1.00000000</v>
    <i name="NUPDOWN">     -1.00000000</i>
    <i type="logical" name="LSORBIT"> F  </i>
    <v name="SAXIS">      0.00000000      0.00000000      1.00000000</v>
    <i type="logical" name="LSPIRAL"> F  </i>
    <v name="QSPIRAL">      0.00000000      0.00000000      0.00000000</v>
    <i type="logical" name="LZEROZ"> F  </i>
   </separator>
   <separator name="electronic exchange-correlation" >
    <i type="logical" name="LASPH"> F  </i>
    <i type="logical" name="LMETAGGA"> F  </i>
   </separator>
   <separator name="electronic convergence" >
    <i type="int" name="NELM">    60</i>
    <i type="int" name="NELMDL">     0</i>
    <i type="int" name="NELMIN">     2</i>
    <i name="ENINI">    520.00000000</i>
    <separator name="electronic convergence detail" >
     <i type="logical" name="LDIAG"> T  </i>
     <i type="logical" name="LSUBROT"> F  </i>
     <i name="WEIMIN">      0.00000000</i>
     <i name="EBREAK">      0.00000001</i>
     <i name="DEPER">      0.30000000</i>
     <i type="int" name="NRMM">     4</i>
     <i name="TIME">      0.40000000</i>
    </separator>
   </separator>
   <separator name="electronic mixer" >
    <i name="AMIX">      0.40000000</i>
    <i name="BMIX">      1.00000000</i>
    <i name="AMIN">      0.10000000</i>
    <i name="AMIX_MAG">      1.60000000</i>
    <i name="BMIX_MAG">      1.00000000</i>
    <separator name="electronic mixer details" >
     <i type="int" name="IMIX">     4</i>
     <i type="int" name="MAXMIX">   -45</i>
     <i name="WC">    100.00000000</i>
     <i type="int" name="INIMIX">     1</i>
     <i type="int" name="MIXPRE">     1</i>
     <i type="int" name="MREMOVE">     5</i>
    </separator>
   </separator>
   <separator name="electronic dipolcorrection" >
    <i type="logical" name="LDIPOL"> F  </i>
    <i type="logical" name="LMONO"> F  </i>
    <i type="int" name="IDIPOL">     0</i>
    <i name="EPSILON">      1.00000000</i>
    <v name="DIPOL">   -100.00000000   -100.00000000   -100.00000000</v>
    <i name="EFIELD">      0.00000000</i>
   </separator>
  </separator>
  <separator name="grids" >
   <i type="int" name="NGX">    24</i>
   <i type="int" name="NGY">    24</i>
   <i type="int" name="NGZ">    24</i>
   <i type="int" name="NGXF">    48</i>
   <i type="int" name="NGYF">    48</i>
   <i type="int" name="NGZF">    48</i>
   <i type="logical" name="ADDGRID"> T  </i>
  </separator>
  <separator name="ionic" >
   <i type="int" name="NSW">     0</i>
   <i type="int" name="IBRION">    -1</i>
   <i type="int" name="ISIF">     2</i>
   <i name="PSTRESS">      0.00000000</i>
   <i name="EDIFFG">     -0.02000000</i>
   <i type="int" name="NFREE">     0</i>
   <i name="POTIM">      0.50000000</i>
   <i name="SMASS">     -3.00000000</i>
   <i name="SCALEE">      1.00000000</i>
  </separator>
  <separator name="ionic md" >
   <i name="TEBEG">      0.00010000</i>
   <i name="TEEND">      0.00010000</i>
   <i type="int" name="NBLOCK">     1</i>
   <i type="int" name="KBLOCK">     1</i>
   <i type="int" name="NPACO">   256</i>
   <i name="APACO">     16.00000000</i>
  </separator>
  <separator name="symmetry" >
   <i type="int" name="ISYM">     2</i>
   <i name="SYMPREC">      0.00001000</i>
  </separator>
  <separator name="dos" >
   <i type="logical" name="LORBIT"> F  </i>
   <v name="RWIGS">     -1.00000000     -1.00000000</v>
   <i type="int" name="NEDOS">   301</i>
   <i name="EMIN">     10.00000000</i>
   <i name="EMAX">    -10.00000000</i>
   <i name="EFERMI">      0.00000000</i>
  </separator>
  <separator name="writing" >
   <i type="int" name="NWRITE">     2</i>
   <i type="logical" name="LWAVE"> T  </i>
   <i type="logical" name="LCHARG"> T  </i>
   <i type="logical" name="LPARD"> F  </i>
   <i type="logical" name="LVTOT"> F  </i>
   <i type="logical" name="LVHAR"> F  </i>
   <i type="logical" name="LELF"> F  </i>
   <i type="logical" name="LOPTICS"> F  </i>
   <v name="STM">      0.00000000      0.00000000      0.00000000      0.00000000      0.00000000      0.00000000      0.00000000</v>
  </separator>
  <separator name="performance" >
   <i type="int" name="NPAR">    48</i>
   <i type="int" name="NSIM">     4</i>
   <i type="int" name="NBLK">    -1</i>
   <i type="logical" name="LPLANE"> T  </i>
   <i type="logical" name="LSCALAPACK"> T  </i>
   <i type="logical" name="LSCAAWARE"> T  </i>
   <i type="logical" name="LSCALU"> F  </i>
   <i type="logical" name="LASYNC"> F  </i>
   <i type="logical" name="LORBITALREAL"> F  </i>
  </separator>
  <separator name="miscellaneous" >
   <i type="int" name="IDIOT">     3</i>
   <i type="logical" name="LMUSIC"> F  </i>
   <v name="POMASS">     28.08500000     12.01100000</v>
   <v name="DARWINR">      0.00000000      0.00000000</v>
   <v name="DARWINV">      1.00000000      1.00000000</v>
   <i type="logical" name="LCORR"> T  </i>
  </separator>
  <i type="logical" name="GGA_COMPAT"> T  </i>
  <i type="logical" name="LBERRY"> F  </i>
  <i type="int" name="ICORELEVEL">     0</i>
  <i type="logical" name="LDAU"> F  </i>
  <i type="int" name="I_CONSTRAINED_M">     0</i>
  <separator name="electronic exchange-correlation" >
   <i type="string" name="GGA">--</i>
   <i type="int" name="VOSKOWN">     0</i>
   <i type="logical" name="LHFCALC"> F  </i>
   <i type="string" name="PRECFOCK"></i>
   <i type="logical" name="LSYMGRAD"> F  </i>
   <i type="logical" name="LHFONE"> F  </i>
   <i type="logical" name="LRHFCALC"> F  </i>
   <i type="logical" name="LTHOMAS"> F  </i>
   <i type="logical" name="LMODELHF"> F  </i>
   <i name="ENCUT4O">     -1.00000000</i>
   <i type="int" name="EXXOEP">     0</i>
   <i type="int" name="FOURORBIT">     0</i>
   <i name="AEXX">      0.00000000</i>
   <i name="HFALPHA">      0.00000000</i>
   <i name="MCALPHA">      0.00000000</i>
   <i name="ALDAX">      1.00000000</i>
   <i name="AGGAX">      1.00000000</i>
   <i name="ALDAC">      1.00000000</i>
   <i name="AGGAC">      1.00000000</i>
   <i type="int" name="NKREDX">     1</i>
   <i type="int" name="NKREDY">     1</i>
   <i type="int" name="NKREDZ">     1</i>
   <i type="logical" name="SHIFTRED"> F  </i>
   <i type="logical" name="ODDONLY"> F  </i>
   <i type="logical" name="EVENONLY"> F  </i>
   <i type="int" name="LMAXFOCK">     0</i>
   <i type="int" name="NMAXFOCKAE">     0</i>
   <i type="logical" name="LFOCKAEDFT"> F  </i>
   <i name="HFSCREEN">      0.00000000</i>
   <i name="HFSCREENC">      0.00000000</i>
   <i type="int" name="NBANDSGWLOW">     0</i>
  </separator>
  <separator name="vdW DFT" >
   <i type="logical" name="LUSE_VDW"> F  </i>
   <i name="Zab_VDW">     -0.84910000</i>
   <i name="PARAM1">      0.12340000</i>
   <i name="PARAM2">      1.00000000</i>
   <i name="PARAM3">      0.00000000</i>
  </separator>
  <separator name="model GW" >
   <i type="int" name="MODEL_GW">     0</i>
   <i name="MODEL_EPS0">      6.30017634</i>
   <i name="MODEL_ALPHA">      1.00000000</i>
  </separator>
  <separator name="linear response parameters" >
   <i type="logical" name="LEPSILON"> F  </i>
   <i type="logical" name="LRPA"> F  </i>
   <i type="logical" name="LNABLA"> F  </i>
   <i type="logical" name="LVEL"> F  </i>
   <i type="int" name="KINTER">     0</i>
   <i name="CSHIFT">      0.10000000</i>
   <i name="OMEGAMAX">     -1.00000000</i>
   <i name="DEG_THRESHOLD">      0.00200000</i>
  </separator>
  <separator name="orbital magnetization" >
   <i type="logical" name="NUCIND"> F  </i>
   <v name="MAGPOS">      0.00000000      0.00000000      0.00000000</v>
   <i type="logical" name="LNICSALL"> T  </i>
   <i type="logical" name="ORBITALMAG"> F  </i>
   <i type="logical" name="LMAGBLOCH"> F  </i>
   <i type="logical" name="LCHIMAG"> F  </i>
   <i type="logical" name="LGAUGE"> T  </i>
   <i type="int" name="MAGATOM">     0</i>
   <v name="MAGDIPOL">      0.00000000      0.00000000      0.00000000</v>
   <v name="AVECCONST">      0.00000000      0.00000000      0.00000000</v>
  </separator>
  <separator name="response functions" >
   <i type="logical" name="LADDER"> F  </i>
   <i type="logical" name="LFXC"> F  </i>
   <i type="logical" name="LHARTREE"> T  </i>
   <i type="int" name="IBSE">     0</i>
   <i type="logical" name="LTCTE"> F  </i>
   <i type="logical" name="LTETE"> F  </i>
   <i type="logical" name="LTRIPLET"> F  </i>
   <i type="logical" name="LFXCEPS"> F  </i>
   <i type="logical" name="LFXHEG"> F  </i>
   <i type="logical" name="L2ORDER"> F  </i>
   <i type="logical" name="LUSEW"> F  </i>
   <i name="ENCUTGW">     -2.00000000</i>
   <i name="ENCUTGWSOFT">     -2.00000000</i>
   <i name="ENCUTLF">     -1.00000000</i>
   <i type="int" name="LMAXMP2">    -1</i>
   <i name="SCISSOR">      0.00000000</i>
   <i type="int" name="NOMEGA">     0</i>
   <i type="int" name="NOMEGAR">     0</i>
   <i type="int" name="NBANDSGW">    -1</i>
   <i type="int" name="NBANDSO">    -1</i>
   <i type="int" name="NBANDSV">    -1</i>
   <i type="int" name="NELM">    60</i>
   <i type="int" name="DIM">     3</i>
   <i type="int" name="ANTIRES">     0</i>
   <i name="OMEGAMAX">    -30.00000000</i>
   <i name="OMEGAMIN">    -30.00000000</i>
   <i name="OMEGATL">   -200.00000000</i>
   <i type="int" name="OMEGAGRID">     0</i>
   <i name="CSHIFT">     -0.10000000</i>
   <i type="logical" name="SELFENERGY"> F  </i>
   <i type="logical" name="LSPECTRAL"> F  </i>
   <i type="logical" name="ODDONLYGW"> F  </i>
   <i type="logical" name="EVENONLYGW"> F  </i>
   <i type="int" name="NKREDLFX">     1</i>
   <i type="int" name="NKREDLFY">     1</i>
   <i type="int" name="NKREDLFZ">     1</i>
   <i type="int" name="MAXMEM">  1800</i>
   <i type="int" name="TELESCOPE">     0</i>
   <i type="int" name="TAUPAR">     1</i>
  </separator>
  <separator name="External order field" >
   <i name="OFIELD_KAPPA">      0.00000000</i>
   <v name="OFIELD_K">      0.00000000      0.00000000      0.00000000</v>
   <i name="OFIELD_Q6_NEAR">      0.00000000</i>
   <i name="OFIELD_Q6_FAR">      0.00000000</i>
   <i name="OFIELD_A">      0.00000000</i>
  </separator>
 </parameters>
 <atominfo>
  <atoms>       2 </atoms>
  <types>       2 </types>
  <array name="atoms" >
   <dimension dim="1">ion</dimension>
   <field type="string">element</field>
   <field type="int">atomtype</field>
   <set>
    <rc><c>Si</c><c>   1</c></rc>
    <rc><c>C </c><c>   2</c></rc>
   </set>
  </array>
  <array name="atomtypes" >
   <dimension dim="1">type</dimension>
   <field type="int">atomspertype</field>
   <field type="string">element</field>
   <field>mass</field>
   <field>valence</field>
   <field type="string">pseudopotential</field>
   <set>
    <rc><c>   1</c><c>Si</c><c>     28.08500000</c><c>      4.00000000</c><c>  PAW_PBE Si 05Jan2001                  </c></rc>
    <rc><c>   1</c><c>C </c><c>     12.01100000</c><c>      4.00000000</c><c>  PAW_PBE C 08Apr2002                   </c></rc>
   </set>
  </array>
 </atominfo>
 <structure name="initialpos" >
  <crystal>
   <varray name="basis" >
    <v>       0.00000000       2.18978000       2.18978000 </v>
    <v>       2.18978000       0.00000000       2.18978000 </v>
    <v>       2.18978000       2.18978000       0.00000000 </v>
   </varray>
   <i name="volume">     21.00058778 </i>
   <varray name="rec_basis" >
    <v>      -0.22833344       0.22833344       0.22833344 </v>
    <v>       0.22833344      -0.22833344       0.22833344 </v>
    <v>       0.22833344       0.22833344      -0.22833344 </v>
   </varray>
  </crystal>
  <varray name="positions" >
   <v>       0.25000000       0.25000000       0.25000000 </v>
   <v>       0.00000000       0.00000000       0.00000000 </v>
  </varray>
 </structure>
 <calculation>
  <scstep>
   <time name="dav">   26.54   26.59</time>
   <time name="total">   26.58   26.64</time>
   <energy>
    <i name="alphaZ">     11.02920051 </i>
    <i name="ewald">   -283.38461863 </i>
    <i name="hartreedc">    -32.03090066 </i>
    <i name="XCdc">      5.56861362 </i>
    <i name="pawpsdc">   1013.53955684 </i>
    <i name="pawaedc">   -996.69888099 </i>
    <i name="eentropy">     -0.00000000 </i>
    <i name="bandstr">     19.64995565 </i>
    <i name="atom">    250.21524468 </i>
    <i name="e_fr_energy">    -12.11182897 </i>
    <i name="e_wo_entrp">    -12.11182897 </i>
    <i name="e_0_energy">    -12.11182897 </i>
   </energy>
  </scstep>
  <scstep>
   <time name="dav">   39.99   40.04</time>
   <time name="total">   39.99   40.06</time>
   <energy>
    <i name="e_fr_energy">    -13.50744186 </i>
    <i name="e_wo_entrp">    -13.50744186 </i>
    <i name="e_0_energy">    -13.50744186 </i>
   </energy>
  </scstep>
  <scstep>
   <time name="dav">   22.73   22.76</time>
   <time name="total">   22.73   22.77</time>
   <energy>
    <i name="e_fr_energy">    -13.50764636 </i>
    <i name="e_wo_entrp">    -13.50764636 </i>
    <i name="e_0_energy">    -13.50764636 </i>
   </energy>
  </scstep>
  <scstep>
   <time name="dav">   69.03   69.53</time>
   <time name="total">   69.04   69.54</time>
   <energy>
    <i name="e_fr_energy">    -13.50764637 </i>
    <i name="e_wo_entrp">    -13.50764637 </i>
    <i name="e_0_energy">    -13.50764637 </i>
   </energy>
  </scstep>
  <scstep>
   <time name="dav">   26.13   26.17</time>
   <time name="total">   26.14   26.18</time>
   <energy>
    <i name="e_fr_energy">    -13.50764637 </i>
    <i name="e_wo_entrp">    -13.50764637 </i>
    <i name="e_0_energy">    -13.50764637 </i>
   </energy>
  </scstep>
  <scstep>
   <time name="dav">   67.69   67.83</time>
   <time name="total">   67.69   67.84</time>
   <energy>
    <i name="alphaZ">     11.02920051 </i>
    <i name="ewald">   -283.38461863 </i>
    <i name="hartreedc">    -32.03090066 </i>
    <i name="XCdc">      5.56861362 </i>
    <i name="pawpsdc">   1013.53955684 </i>
    <i name="pawaedc">   -996.69888099 </i>
    <i name="eentropy">     -0.00000000 </i>
    <i name="bandstr">     18.25413825 </i>
    <i name="atom">    250.21524468 </i>
    <i name="e_fr_energy">    -13.50764637 </i>
    <i name="e_wo_entrp">    -13.50764637 </i>
    <i name="e_0_energy">    -13.50764637 </i>
   </energy>
  </scstep>
  <structure>
   <crystal>
    <varray name="basis" >
     <v>       0.00000000       2.18978000       2.18978000 </v>
     <v>       2.18978000       0.00000000       2.18978000 </v>
     <v>       2.18978000       2.18978000       0.00000000 </v>
    </varray>
    <i name="volume">     21.00058778 </i>
    <varray name="rec_basis" >
     <v>      -0.22833344       0.22833344       0.22833344 </v>
     <v>       0.22833344      -0.22833344       0.22833344 </v>
     <v>       0.22833344       0.22833344      -0.22833344 </v>
    </varray>
   </crystal>
   <varray name="positions" >
    <v>       0.25000000       0.25000000       0.25000000 </v>
    <v>       0.00000000       0.00000000       0.00000000 </v>
   </varray>
  </structure>
  <varray name="forces" >
   <v>       0.00000000       0.00000000       0.00000000 </v>
   <v>      -0.00000000      -0.00000000      -0.00000000 </v>
  </varray>
  <varray name="stress" >
   <v>     107.73767746      -0.00000000       0.00000000 </v>
   <v>      -0.00000000     107.73767746      -0.00000000 </v>
   <v>       0.00000000      -0.00000000     107.73767746 </v>
  </varray>
  <energy>
   <i name="e_fr_energy">    -13.50764637 </i>
   <i name="e_wo_entrp">    -13.50764637 </i>
   <i name="e_0_energy">     -0.00000000 </i>
  </energy>
  <time name="totalsc">  254.59  255.57</time>
  <eigenvalues>
   <array>
    <dimension dim="1">band</dimension>
    <dimension dim="2">kpoint</dimension>
    <dimension dim="3">spin</dimension>
    <field>eigene</field>
    <field>occ</field>
    <set>
     <set comment="spin 1">
      <set comment="kpoint 1">
       <r>   -7.3459    1.0000 </r>
       <r>    7.9415    1.0000 </r>
       <r>    7.9415    1.0000 </r>
       <r>    7.9415    1.0000 </r>
       <r>   14.0022    0.0000 </r>
       <r>   15.1469    0.0000 </r>
       <r>   15.1469    0.0000 </r>
       <r>   15.1469    0.0000 </r>
       <r>   22.3620    0.0000 </r>
       <r>   22.3620    0.0000 </r>
       <r>   24.1938    0.0000 </r>
       <r>   25.0967    0.0000 </r>
       <r>   25.0967    0.0000 </r>
       <r>   25.0967    0.0000 </r>
       <r>   31.2393    0.0000 </r>
       <r>   41.3336    0.0000 </r>
       <r>   41.3336    0.0000 </r>
       <r>   41.3336    0.0000 </r>
       <r>   49.3953    0.0000 </r>
       <r>   49.3953    0.0000 </r>
       <r>   49.3953    0.0000 </r>
       <r>   50.8417    0.0000 </r>
       <r>   50.8417    0.0000 </r>
       <r>   54.8427    0.0000 </r>
       <r>   54.8427    0.0000 </r>
       <r>   54.8427    0.0000 </r>
       <r>   66.6712    0.0000 </r>
       <r>   67.5371    0.0000 </r>
       <r>   67.5371    0.0000 </r>
       <r>   67.5371    0.0000 </r>
       <r>   70.4707    0.0000 </r>
       <r>   70.4707    0.0000 </r>
       <r>   70.4707    0.0000 </r>
       <r>   70.8050    0.0000 </r>
       <r>   70.8050    0.0000 </r>
       <r>   76.6548    0.0000 </r>
       <r>   76.9142    0.0000 </r>
       <r>   76.9142    0.0000 </r>
       <r>   77.7673    0.0000 </r>
       <r>   77.7673    0.0000 </r>
       <r>   77.7673    0.0000 </r>
       <r>   79.2303    0.0000 </r>
       <r>   79.2303    0.0000 </r>
       <r>   79.2303    0.0000 </r>
       <r>   79.8547    0.0000 </r>
       <r>   79.8547    0.0000 </r>
       <r>   79.8547    0.0000 </r>
       <r>   80.3515    0.0000 </r>
      </set>
      <set comment="kpoint 2">
       <r>   -7.3281    1.0000 </r>
       <r>    7.8820    1.0000 </r>
       <r>    7.9053    1.0000 </r>
       <r>    7.9053    1.0000 </r>
       <r>   14.0570    0.0000 </r>
       <r>   15.0974    0.0000 </r>
       <r>   15.1993    0.0000 </r>
       <r>   15.1993    0.0000 </r>
       <r>   22.0744    0.0000 </r>
       <r>   22.3822    0.0000 </r>
       <r>   24.2473    0.0000 </r>
       <r>   25.1327    0.0000 </r>
       <r>   25.1327    0.0000 </r>
       <r>   25.3610    0.0000 </r>
       <r>   31.3575    0.0000 </r>
       <r>   41.2561    0.0000 </r>
       <r>   41.2561    0.0000 </r>
       <r>   41.3180    0.0000 </r>
       <r>   49.2780    0.0000 </r>
       <r>   49.2780    0.0000 </r>
       <r>   49.3290    0.0000 </r>
       <r>   50.3551    0.0000 </r>
       <r>   50.9492    0.0000 </r>
       <r>   55.0511    0.0000 </r>
       <r>   55.0511    0.0000 </r>
       <r>   55.3530    0.0000 </r>
       <r>   66.2318    0.0000 </r>
       <r>   67.3982    0.0000 </r>
       <r>   67.3982    0.0000 </r>
       <r>   67.7844    0.0000 </r>
       <r>   70.0579    0.0000 </r>
       <r>   70.5010    0.0000 </r>
       <r>   70.5010    0.0000 </r>
       <r>   70.7628    0.0000 </r>
       <r>   70.7710    0.0000 </r>
       <r>   76.3495    0.0000 </r>
       <r>   76.7151    0.0000 </r>
       <r>   76.7192    0.0000 </r>
       <r>   77.2564    0.0000 </r>
       <r>   77.2564    0.0000 </r>
       <r>   78.3728    0.0000 </r>
       <r>   78.4650    0.0000 </r>
       <r>   78.4650    0.0000 </r>
       <r>   79.4132    0.0000 </r>
       <r>   80.0235    0.0000 </r>
       <r>   80.0235    0.0000 </r>
       <r>   80.3636    0.0000 </r>
       <r>   80.5140    0.0000 </r>
      </set>
      <set comment="kpoint 3">
       <r>   -7.2744    1.0000 </r>
       <r>    7.7107    1.0000 </r>
       <r>    7.8002    1.0000 </r>
       <r>    7.8002    1.0000 </r>
       <r>   14.2053    0.0000 </r>
       <r>   14.9596    0.0000 </r>
       <r>   15.3526    0.0000 </r>
       <r>   15.3526    0.0000 </r>
       <r>   21.4138    0.0000 </r>
       <r>   22.4427    0.0000 </r>
       <r>   24.4529    0.0000 </r>
       <r>   25.2407    0.0000 </r>
       <r>   25.2407    0.0000 </r>
       <r>   25.9054    0.0000 </r>
       <r>   31.7089    0.0000 </r>
       <r>   41.0268    0.0000 </r>
       <r>   41.0268    0.0000 </r>
       <r>   41.2785    0.0000 </r>
       <r>   48.9834    0.0000 </r>
       <r>   48.9834    0.0000 </r>
       <r>   49.1809    0.0000 </r>
       <r>   49.2914    0.0000 </r>
       <r>   51.2191    0.0000 </r>
       <r>   55.6129    0.0000 </r>
       <r>   55.6129    0.0000 </r>
       <r>   56.4859    0.0000 </r>
       <r>   65.3435    0.0000 </r>
       <r>   67.0119    0.0000 </r>
       <r>   67.0119    0.0000 </r>
       <r>   68.1034    0.0000 </r>
       <r>   69.2622    0.0000 </r>
       <r>   70.3592    0.0000 </r>
       <r>   70.5359    0.0000 </r>
       <r>   70.5359    0.0000 </r>
       <r>   70.6450    0.0000 </r>
       <r>   75.6206    0.0000 </r>
       <r>   76.0978    0.0000 </r>
       <r>   76.0978    0.0000 </r>
       <r>   76.2545    0.0000 </r>
       <r>   76.9657    0.0000 </r>
       <r>   77.8252    0.0000 </r>
       <r>   77.8252    0.0000 </r>
       <r>   79.3801    0.0000 </r>
       <r>   79.8427    0.0000 </r>
       <r>   80.5284    0.0000 </r>
       <r>   80.5284    0.0000 </r>
       <r>   80.9774    0.0000 </r>
       <r>   81.4914    0.0000 </r>
      </set>
      <set comment="kpoint 4">
       <r>   -7.1853    1.0000 </r>
       <r>    7.4458    1.0000 </r>
       <r>    7.6367    1.0000 </r>
       <r>    7.6367    1.0000 </r>
       <r>   14.3699    0.0000 </r>
       <r>   14.7941    0.0000 </r>
       <r>   15.5958    0.0000 </r>
       <r>   15.5958    0.0000 </r>
       <r>   20.6357    0.0000 </r>
       <r>   22.5434    0.0000 </r>
       <r>   24.8099    0.0000 </r>
       <r>   25.4206    0.0000 </r>
       <r>   25.4206    0.0000 </r>
       <r>   26.4787    0.0000 </r>
       <r>   32.2765    0.0000 </r>
       <r>   40.6507    0.0000 </r>
       <r>   40.6507    0.0000 </r>
       <r>   41.2246    0.0000 </r>
       <r>   48.0457    0.0000 </r>
       <r>   48.6173    0.0000 </r>
       <r>   48.6173    0.0000 </r>
       <r>   49.0237    0.0000 </r>
       <r>   51.5679    0.0000 </r>
       <r>   56.3988    0.0000 </r>
       <r>   56.3988    0.0000 </r>
       <r>   57.8398    0.0000 </r>
       <r>   64.2099    0.0000 </r>
       <r>   66.4255    0.0000 </r>
       <r>   66.4255    0.0000 </r>
       <r>   68.1054    0.0000 </r>
       <r>   68.5198    0.0000 </r>
       <r>   69.6263    0.0000 </r>
       <r>   70.4516    0.0000 </r>
       <r>   70.4516    0.0000 </r>
       <r>   70.4744    0.0000 </r>
       <r>   75.0040    0.0000 </r>
       <r>   75.0040    0.0000 </r>
       <r>   75.0316    0.0000 </r>
       <r>   75.7021    0.0000 </r>
       <r>   77.3495    0.0000 </r>
       <r>   77.3495    0.0000 </r>
       <r>   77.4171    0.0000 </r>
       <r>   80.4035    0.0000 </r>
       <r>   80.4838    0.0000 </r>
       <r>   81.0679    0.0000 </r>
       <r>   81.0679    0.0000 </r>
       <r>   81.6685    0.0000 </r>
       <r>   82.5624    0.0000 </r>
      </set>
      <set comment="kpoint 5">
       <r>   -7.0608    1.0000 </r>
       <r>    7.1089    1.0000 </r>
       <r>    7.4282    1.0000 </r>
       <r>    7.4282    1.0000 </r>
       <r>   14.2721    0.0000 </r>
       <r>   14.8513    0.0000 </r>
       <r>   15.9143    0.0000 </r>
       <r>   15.9143    0.0000 </r>
       <r>   19.8748    0.0000 </r>
       <r>   22.6842    0.0000 </r>
       <r>   25.2909    0.0000 </r>
       <r>   25.6724    0.0000 </r>
       <r>   25.6724    0.0000 </r>
       <r>   27.0019    0.0000 </r>
       <r>   33.0189    0.0000 </r>
       <r>   40.1461    0.0000 </r>
       <r>   40.1461    0.0000 </r>
       <r>   41.1844    0.0000 </r>
       <r>   46.7529    0.0000 </r>
       <r>   48.2586    0.0000 </r>
       <r>   48.2586    0.0000 </r>
       <r>   48.8972    0.0000 </r>
       <r>   51.9408    0.0000 </r>
       <r>   57.2863    0.0000 </r>
       <r>   57.2863    0.0000 </r>
       <r>   59.2672    0.0000 </r>
       <r>   62.8985    0.0000 </r>
       <r>   65.6821    0.0000 </r>
       <r>   65.6821    0.0000 </r>
       <r>   67.1488    0.0000 </r>
       <r>   68.4022    0.0000 </r>
       <r>   68.9168    0.0000 </r>
       <r>   70.1678    0.0000 </r>
       <r>   70.1678    0.0000 </r>
       <r>   70.2870    0.0000 </r>
       <r>   74.2334    0.0000 </r>
       <r>   74.2334    0.0000 </r>
       <r>   74.5809    0.0000 </r>
       <r>   75.1375    0.0000 </r>
       <r>   76.9475    0.0000 </r>
       <r>   76.9475    0.0000 </r>
       <r>   78.0090    0.0000 </r>
       <r>   81.0760    0.0000 </r>
       <r>   81.2817    0.0000 </r>
       <r>   81.4055    0.0000 </r>
       <r>   81.4055    0.0000 </r>
       <r>   82.5087    0.0000 </r>
       <r>   83.0001    0.0000 </r>
      </set>
      <set comment="kpoint 6">
       <r>   -6.9013    1.0000 </r>
       <r>    6.7187    1.0000 </r>
       <r>    7.1889    1.0000 </r>
       <r>    7.1889    1.0000 </r>
       <r>   13.9454    0.0000 </r>
       <r>   15.0494    0.0000 </r>
       <r>   16.2923    0.0000 </r>
       <r>   16.2923    0.0000 </r>
       <r>   19.2248    0.0000 </r>
       <r>   22.8648    0.0000 </r>
       <r>   25.8717    0.0000 </r>
       <r>   25.9952    0.0000 </r>
       <r>   25.9952    0.0000 </r>
       <r>   27.4685    0.0000 </r>
       <r>   33.8662    0.0000 </r>
       <r>   39.5322    0.0000 </r>
       <r>   39.5322    0.0000 </r>
       <r>   41.1946    0.0000 </r>
       <r>   45.4588    0.0000 </r>
       <r>   47.9395    0.0000 </r>
       <r>   47.9395    0.0000 </r>
       <r>   48.8173    0.0000 </r>
       <r>   52.2952    0.0000 </r>
       <r>   58.1557    0.0000 </r>
       <r>   58.1557    0.0000 </r>
       <r>   60.6986    0.0000 </r>
       <r>   61.4654    0.0000 </r>
       <r>   64.8262    0.0000 </r>
       <r>   64.8262    0.0000 </r>
       <r>   66.0426    0.0000 </r>
       <r>   67.6804    0.0000 </r>
       <r>   68.8309    0.0000 </r>
       <r>   69.7441    0.0000 </r>
       <r>   69.7441    0.0000 </r>
       <r>   70.1242    0.0000 </r>
       <r>   73.7630    0.0000 </r>
       <r>   73.7630    0.0000 </r>
       <r>   74.2218    0.0000 </r>
       <r>   74.5940    0.0000 </r>
       <r>   76.5885    0.0000 </r>
       <r>   76.5885    0.0000 </r>
       <r>   78.6742    0.0000 </r>
       <r>   81.1045    0.0000 </r>
       <r>   81.3810    0.0000 </r>
       <r>   81.3810    0.0000 </r>
       <r>   81.8555    0.0000 </r>
       <r>   83.4245    0.0000 </r>
       <r>   83.4489    0.0000 </r>
      </set>
      <set comment="kpoint 7">
       <r>   -6.7073    1.0000 </r>
       <r>    6.2897    1.0000 </r>
       <r>    6.9317    1.0000 </r>
       <r>    6.9317    1.0000 </r>
       <r>   13.5492    0.0000 </r>
       <r>   15.1549    0.0000 </r>
       <r>   16.7155    0.0000 </r>
       <r>   16.7155    0.0000 </r>
       <r>   18.7836    0.0000 </r>
       <r>   23.0847    0.0000 </r>
       <r>   26.3878    0.0000 </r>
       <r>   26.3878    0.0000 </r>
       <r>   26.5309    0.0000 </r>
       <r>   27.8965    0.0000 </r>
       <r>   34.7269    0.0000 </r>
       <r>   38.8376    0.0000 </r>
       <r>   38.8376    0.0000 </r>
       <r>   41.3164    0.0000 </r>
       <r>   44.1825    0.0000 </r>
       <r>   47.6675    0.0000 </r>
       <r>   47.6675    0.0000 </r>
       <r>   48.7891    0.0000 </r>
       <r>   52.5895    0.0000 </r>
       <r>   58.8445    0.0000 </r>
       <r>   58.8445    0.0000 </r>
       <r>   59.9661    0.0000 </r>
       <r>   62.0730    0.0000 </r>
       <r>   63.9773    0.0000 </r>
       <r>   63.9773    0.0000 </r>
       <r>   64.9370    0.0000 </r>
       <r>   66.8135    0.0000 </r>
       <r>   68.8863    0.0000 </r>
       <r>   69.3524    0.0000 </r>
       <r>   69.3524    0.0000 </r>
       <r>   70.0398    0.0000 </r>
       <r>   73.4492    0.0000 </r>
       <r>   73.4492    0.0000 </r>
       <r>   73.9191    0.0000 </r>
       <r>   74.0922    0.0000 </r>
       <r>   76.2342    0.0000 </r>
       <r>   76.2342    0.0000 </r>
       <r>   79.3068    0.0000 </r>
       <r>   80.4723    0.0000 </r>
       <r>   81.2663    0.0000 </r>
       <r>   81.2663    0.0000 </r>
       <r>   82.7342    0.0000 </r>
       <r>   83.3588    0.0000 </r>
       <r>   84.4651    0.0000 </r>
      </set>
      <set comment="kpoint 8">
       <r>   -6.4794    1.0000 </r>
       <r>    5.8316    1.0000 </r>
       <r>    6.6673    1.0000 </r>
       <r>    6.6673    1.0000 </r>
       <r>   13.1157    0.0000 </r>
       <r>   15.0680    0.0000 </r>
       <r>   17.1713    0.0000 </r>
       <r>   17.1713    0.0000 </r>
       <r>   18.6336    0.0000 </r>
       <r>   23.3436    0.0000 </r>
       <r>   26.8476    0.0000 </r>
       <r>   26.8476    0.0000 </r>
       <r>   27.2474    0.0000 </r>
       <r>   28.3087    0.0000 </r>
       <r>   35.4970    0.0000 </r>
       <r>   38.0896    0.0000 </r>
       <r>   38.0896    0.0000 </r>
       <r>   41.6275    0.0000 </r>
       <r>   42.9339    0.0000 </r>
       <r>   47.4307    0.0000 </r>
       <r>   47.4307    0.0000 </r>
       <r>   48.8105    0.0000 </r>
       <r>   52.7750    0.0000 </r>
       <r>   58.4426    0.0000 </r>
       <r>   59.0900    0.0000 </r>
       <r>   59.0900    0.0000 </r>
       <r>   63.3104    0.0000 </r>
       <r>   63.3699    0.0000 </r>
       <r>   63.3699    0.0000 </r>
       <r>   63.9075    0.0000 </r>
       <r>   65.9651    0.0000 </r>
       <r>   68.9348    0.0000 </r>
       <r>   69.1366    0.0000 </r>
       <r>   69.1366    0.0000 </r>
       <r>   70.1033    0.0000 </r>
       <r>   73.1786    0.0000 </r>
       <r>   73.1786    0.0000 </r>
       <r>   73.6393    0.0000 </r>
       <r>   73.6542    0.0000 </r>
       <r>   75.8472    0.0000 </r>
       <r>   75.8472    0.0000 </r>
       <r>   79.2638    0.0000 </r>
       <r>   80.3974    0.0000 </r>
       <r>   81.3226    0.0000 </r>
       <r>   81.3226    0.0000 </r>
       <r>   83.0307    0.0000 </r>
       <r>   83.7026    0.0000 </r>
       <r>   85.5467    0.0000 </r>
      </set>
      <set comment="kpoint 9">
       <r>   -6.2185    1.0000 </r>
       <r>    5.3505    1.0000 </r>
       <r>    6.4043    1.0000 </r>
       <r>    6.4043    1.0000 </r>
       <r>   12.6585    0.0000 </r>
       <r>   14.7929    0.0000 </r>
       <r>   17.6493    0.0000 </r>
       <r>   17.6493    0.0000 </r>
       <r>   18.7664    0.0000 </r>
       <r>   23.6407    0.0000 </r>
       <r>   27.3700    0.0000 </r>
       <r>   27.3700    0.0000 </r>
       <r>   27.9890    0.0000 </r>
       <r>   28.7356    0.0000 </r>
       <r>   36.0900    0.0000 </r>
       <r>   37.3156    0.0000 </r>
       <r>   37.3156    0.0000 </r>
       <r>   41.7188    0.0000 </r>
       <r>   42.1989    0.0000 </r>
       <r>   47.2107    0.0000 </r>
       <r>   47.2107    0.0000 </r>
       <r>   48.8756    0.0000 </r>
       <r>   52.7952    0.0000 </r>
       <r>   56.9389    0.0000 </r>
       <r>   58.6780    0.0000 </r>
       <r>   58.6780    0.0000 </r>
       <r>   63.0262    0.0000 </r>
       <r>   63.1949    0.0000 </r>
       <r>   63.1949    0.0000 </r>
       <r>   64.3063    0.0000 </r>
       <r>   65.1537    0.0000 </r>
       <r>   68.9731    0.0000 </r>
       <r>   69.1871    0.0000 </r>
       <r>   69.1871    0.0000 </r>
       <r>   70.3828    0.0000 </r>
       <r>   72.9087    0.0000 </r>
       <r>   72.9087    0.0000 </r>
       <r>   73.3247    0.0000 </r>
       <r>   73.3580    0.0000 </r>
       <r>   75.4259    0.0000 </r>
       <r>   75.4259    0.0000 </r>
       <r>   78.5376    0.0000 </r>
       <r>   80.8240    0.0000 </r>
       <r>   81.6154    0.0000 </r>
       <r>   81.6154    0.0000 </r>
       <r>   82.8310    0.0000 </r>
       <r>   84.7522    0.0000 </r>
       <r>   86.5491    0.0000 </r>
      </set>
      <set comment="kpoint 10">
       <r>   -5.9256    1.0000 </r>
       <r>    4.8504    1.0000 </r>
       <r>    6.1495    1.0000 </r>
       <r>    6.1495    1.0000 </r>
       <r>   12.1885    0.0000 </r>
       <r>   14.4158    0.0000 </r>
       <r>   18.1407    0.0000 </r>
       <r>   18.1407    0.0000 </r>
       <r>   19.0907    0.0000 </r>
       <r>   23.9748    0.0000 </r>
       <r>   27.9472    0.0000 </r>
       <r>   27.9472    0.0000 </r>
       <r>   28.6707    0.0000 </r>
       <r>   29.2551    0.0000 </r>
       <r>   36.4818    0.0000 </r>
       <r>   36.5418    0.0000 </r>
       <r>   36.5418    0.0000 </r>
       <r>   40.5413    0.0000 </r>
       <r>   43.0392    0.0000 </r>
       <r>   46.9843    0.0000 </r>
       <r>   46.9843    0.0000 </r>
       <r>   48.9735    0.0000 </r>
       <r>   52.5936    0.0000 </r>
       <r>   55.4981    0.0000 </r>
       <r>   57.7733    0.0000 </r>
       <r>   57.7733    0.0000 </r>
       <r>   62.3451    0.0000 </r>
       <r>   63.2768    0.0000 </r>
       <r>   63.2768    0.0000 </r>
       <r>   64.3955    0.0000 </r>
       <r>   64.9772    0.0000 </r>
       <r>   69.0046    0.0000 </r>
       <r>   69.5371    0.0000 </r>
       <r>   69.5371    0.0000 </r>
       <r>   70.8405    0.0000 </r>
       <r>   72.6397    0.0000 </r>
       <r>   72.6397    0.0000 </r>
       <r>   73.0526    0.0000 </r>
       <r>   73.2310    0.0000 </r>
       <r>   75.0086    0.0000 </r>
       <r>   75.0086    0.0000 </r>
       <r>   77.7719    0.0000 </r>
       <r>   80.8069    0.0000 </r>
       <r>   82.1199    0.0000 </r>
       <r>   82.1199    0.0000 </r>
       <r>   83.0841    0.0000 </r>
       <r>   85.8762    0.0000 </r>
       <r>   87.6103    0.0000 </r>
      </set>
      <set comment="kpoint 11">
       <r>   -5.6020    1.0000 </r>
       <r>    4.3339    1.0000 </r>
       <r>    5.9081    1.0000 </r>
       <r>    5.9081    1.0000 </r>
       <r>   11.7182    0.0000 </r>
       <r>   14.0165    0.0000 </r>
       <r>   18.6380    0.0000 </r>
       <r>   18.6380    0.0000 </r>
       <r>   19.5177    0.0000 </r>
       <r>   24.3448    0.0000 </r>
       <r>   28.5655    0.0000 </r>
       <r>   28.5655    0.0000 </r>
       <r>   29.1705    0.0000 </r>
       <r>   29.9757    0.0000 </r>
       <r>   35.7954    0.0000 </r>
       <r>   35.7954    0.0000 </r>
       <r>   36.7242    0.0000 </r>
       <r>   39.4047    0.0000 </r>
       <r>   44.0730    0.0000 </r>
       <r>   46.7243    0.0000 </r>
       <r>   46.7243    0.0000 </r>
       <r>   49.0859    0.0000 </r>
       <r>   52.1374    0.0000 </r>
       <r>   54.1856    0.0000 </r>
       <r>   56.6740    0.0000 </r>
       <r>   56.6740    0.0000 </r>
       <r>   61.8708    0.0000 </r>
       <r>   63.3572    0.0000 </r>
       <r>   63.3572    0.0000 </r>
       <r>   63.7266    0.0000 </r>
       <r>   65.3334    0.0000 </r>
       <r>   69.0337    0.0000 </r>
       <r>   70.1214    0.0000 </r>
       <r>   70.1214    0.0000 </r>
       <r>   71.1752    0.0000 </r>
       <r>   72.3995    0.0000 </r>
       <r>   72.3995    0.0000 </r>
       <r>   72.7008    0.0000 </r>
       <r>   73.6673    0.0000 </r>
       <r>   74.6638    0.0000 </r>
       <r>   74.6638    0.0000 </r>
       <r>   77.0583    0.0000 </r>
       <r>   80.2714    0.0000 </r>
       <r>   82.7872    0.0000 </r>
       <r>   82.7872    0.0000 </r>
       <r>   83.6747    0.0000 </r>
       <r>   87.0687    0.0000 </r>
       <r>   88.0557    0.0000 </r>
      </set>
      <set comment="kpoint 12">
       <r>   -5.2496    1.0000 </r>
       <r>    3.8032    1.0000 </r>
       <r>    5.6843    1.0000 </r>
       <r>    5.6843    1.0000 </r>
       <r>   11.2616    0.0000 </r>
       <r>   13.6384    0.0000 </r>
       <r>   19.1344    0.0000 </r>
       <r>   19.1344    0.0000 </r>
       <r>   19.9898    0.0000 </r>
       <r>   24.7484    0.0000 </r>
       <r>   29.2010    0.0000 </r>
       <r>   29.2010    0.0000 </r>
       <r>   29.5374    0.0000 </r>
       <r>   30.8297    0.0000 </r>
       <r>   35.1113    0.0000 </r>
       <r>   35.1113    0.0000 </r>
       <r>   36.8995    0.0000 </r>
       <r>   38.3128    0.0000 </r>
       <r>   45.1524    0.0000 </r>
       <r>   46.4022    0.0000 </r>
       <r>   46.4022    0.0000 </r>
       <r>   49.1754    0.0000 </r>
       <r>   51.4656    0.0000 </r>
       <r>   53.0909    0.0000 </r>
       <r>   55.5602    0.0000 </r>
       <r>   55.5602    0.0000 </r>
       <r>   61.5281    0.0000 </r>
       <r>   63.2215    0.0000 </r>
       <r>   63.3529    0.0000 </r>
       <r>   63.3529    0.0000 </r>
       <r>   65.4682    0.0000 </r>
       <r>   69.0569    0.0000 </r>
       <r>   70.7121    0.0000 </r>
       <r>   70.7121    0.0000 </r>
       <r>   71.1820    0.0000 </r>
       <r>   72.2667    0.0000 </r>
       <r>   72.2667    0.0000 </r>
       <r>   72.2770    0.0000 </r>
       <r>   74.5123    0.0000 </r>
       <r>   74.5123    0.0000 </r>
       <r>   74.7486    0.0000 </r>
       <r>   76.4286    0.0000 </r>
       <r>   79.3939    0.0000 </r>
       <r>   83.5737    0.0000 </r>
       <r>   83.5737    0.0000 </r>
       <r>   84.1050    0.0000 </r>
       <r>   87.4331    0.0000 </r>
       <r>   88.3247    0.0000 </r>
      </set>
      <set comment="kpoint 13">
       <r>   -4.8708    1.0000 </r>
       <r>    3.2613    1.0000 </r>
       <r>    5.4811    1.0000 </r>
       <r>    5.4811    1.0000 </r>
       <r>   10.8328    0.0000 </r>
       <r>   13.3000    0.0000 </r>
       <r>   19.6226    0.0000 </r>
       <r>   19.6226    0.0000 </r>
       <r>   20.4721    0.0000 </r>
       <r>   25.1826    0.0000 </r>
       <r>   29.8075    0.0000 </r>
       <r>   29.8075    0.0000 </r>
       <r>   29.8274    0.0000 </r>
       <r>   31.7395    0.0000 </r>
       <r>   34.5423    0.0000 </r>
       <r>   34.5423    0.0000 </r>
       <r>   37.0850    0.0000 </r>
       <r>   37.2697    0.0000 </r>
       <r>   45.9866    0.0000 </r>
       <r>   45.9866    0.0000 </r>
       <r>   46.0193    0.0000 </r>
       <r>   49.1403    0.0000 </r>
       <r>   50.8198    0.0000 </r>
       <r>   52.3185    0.0000 </r>
       <r>   54.5304    0.0000 </r>
       <r>   54.5304    0.0000 </r>
       <r>   61.1777    0.0000 </r>
       <r>   62.9881    0.0000 </r>
       <r>   63.2766    0.0000 </r>
       <r>   63.2766    0.0000 </r>
       <r>   65.4762    0.0000 </r>
       <r>   69.0728    0.0000 </r>
       <r>   70.9577    0.0000 </r>
       <r>   70.9577    0.0000 </r>
       <r>   71.0250    0.0000 </r>
       <r>   71.7573    0.0000 </r>
       <r>   72.3171    0.0000 </r>
       <r>   72.3171    0.0000 </r>
       <r>   74.7718    0.0000 </r>
       <r>   74.7718    0.0000 </r>
       <r>   75.9018    0.0000 </r>
       <r>   76.2162    0.0000 </r>
       <r>   78.2304    0.0000 </r>
       <r>   83.9365    0.0000 </r>
       <r>   84.4425    0.0000 </r>
       <r>   84.4425    0.0000 </r>
       <r>   87.6001    0.0000 </r>
       <r>   89.6394    0.0000 </r>
      </set>
      <set comment="kpoint 14">
       <r>   -4.4692    1.0000 </r>
       <r>    2.7125    1.0000 </r>
       <r>    5.3011    1.0000 </r>
       <r>    5.3011    1.0000 </r>
       <r>   10.4442    0.0000 </r>
       <r>   13.0074    0.0000 </r>
       <r>   20.0947    0.0000 </r>
       <r>   20.0947    0.0000 </r>
       <r>   20.9405    0.0000 </r>
       <r>   25.6428    0.0000 </r>
       <r>   30.0462    0.0000 </r>
       <r>   30.2987    0.0000 </r>
       <r>   30.2987    0.0000 </r>
       <r>   32.6784    0.0000 </r>
       <r>   34.1792    0.0000 </r>
       <r>   34.1792    0.0000 </r>
       <r>   36.2805    0.0000 </r>
       <r>   37.3361    0.0000 </r>
       <r>   45.4531    0.0000 </r>
       <r>   45.4531    0.0000 </r>
       <r>   46.2671    0.0000 </r>
       <r>   48.7598    0.0000 </r>
       <r>   50.6620    0.0000 </r>
       <r>   52.0414    0.0000 </r>
       <r>   53.6445    0.0000 </r>
       <r>   53.6445    0.0000 </r>
       <r>   60.7597    0.0000 </r>
       <r>   63.0474    0.0000 </r>
       <r>   63.1607    0.0000 </r>
       <r>   63.1607    0.0000 </r>
       <r>   65.4217    0.0000 </r>
       <r>   69.0727    0.0000 </r>
       <r>   70.8299    0.0000 </r>
       <r>   70.8613    0.0000 </r>
       <r>   70.8613    0.0000 </r>
       <r>   71.1219    0.0000 </r>
       <r>   72.3533    0.0000 </r>
       <r>   72.3533    0.0000 </r>
       <r>   75.4851    0.0000 </r>
       <r>   75.5854    0.0000 </r>
       <r>   75.5854    0.0000 </r>
       <r>   76.8508    0.0000 </r>
       <r>   77.8809    0.0000 </r>
       <r>   83.4113    0.0000 </r>
       <r>   85.3637    0.0000 </r>
       <r>   85.3637    0.0000 </r>
       <r>   88.4614    0.0000 </r>
       <r>   91.0066    0.0000 </r>
      </set>
      <set comment="kpoint 15">
       <r>   -4.0500    1.0000 </r>
       <r>    2.1636    1.0000 </r>
       <r>    5.1461    1.0000 </r>
       <r>    5.1461    1.0000 </r>
       <r>   10.1053    0.0000 </r>
       <r>   12.7618    0.0000 </r>
       <r>   20.5403    0.0000 </r>
       <r>   20.5403    0.0000 </r>
       <r>   21.3765    0.0000 </r>
       <r>   26.1214    0.0000 </r>
       <r>   30.1924    0.0000 </r>
       <r>   30.5544    0.0000 </r>
       <r>   30.5544    0.0000 </r>
       <r>   33.6336    0.0000 </r>
       <r>   34.1437    0.0000 </r>
       <r>   34.1437    0.0000 </r>
       <r>   35.3535    0.0000 </r>
       <r>   37.6822    0.0000 </r>
       <r>   44.7946    0.0000 </r>
       <r>   44.7946    0.0000 </r>
       <r>   45.7604    0.0000 </r>
       <r>   48.0420    0.0000 </r>
       <r>   50.8751    0.0000 </r>
       <r>   52.5099    0.0000 </r>
       <r>   52.9333    0.0000 </r>
       <r>   52.9333    0.0000 </r>
       <r>   60.3470    0.0000 </r>
       <r>   63.0313    0.0000 </r>
       <r>   63.0313    0.0000 </r>
       <r>   63.3021    0.0000 </r>
       <r>   65.3421    0.0000 </r>
       <r>   69.0183    0.0000 </r>
       <r>   70.3712    0.0000 </r>
       <r>   70.6422    0.0000 </r>
       <r>   70.6533    0.0000 </r>
       <r>   70.6533    0.0000 </r>
       <r>   72.2783    0.0000 </r>
       <r>   72.2783    0.0000 </r>
       <r>   75.1555    0.0000 </r>
       <r>   75.4104    0.0000 </r>
       <r>   76.7733    0.0000 </r>
       <r>   76.7733    0.0000 </r>
       <r>   79.6574    0.0000 </r>
       <r>   82.9009    0.0000 </r>
       <r>   86.2959    0.0000 </r>
       <r>   86.2959    0.0000 </r>
       <r>   89.6137    0.0000 </r>
       <r>   92.4123    0.0000 </r>
      </set>
      <set comment="kpoint 16">
       <r>   -3.6217    1.0000 </r>
       <r>    1.6248    1.0000 </r>
       <r>    5.0175    1.0000 </r>
       <r>    5.0175    1.0000 </r>
       <r>    9.8226    0.0000 </r>
       <r>   12.5626    0.0000 </r>
       <r>   20.9463    0.0000 </r>
       <r>   20.9463    0.0000 </r>
       <r>   21.7634    0.0000 </r>
       <r>   26.6060    0.0000 </r>
       <r>   30.2717    0.0000 </r>
       <r>   30.5320    0.0000 </r>
       <r>   30.5320    0.0000 </r>
       <r>   34.4749    0.0000 </r>
       <r>   34.4749    0.0000 </r>
       <r>   34.5017    0.0000 </r>
       <r>   34.5938    0.0000 </r>
       <r>   38.1238    0.0000 </r>
       <r>   44.0323    0.0000 </r>
       <r>   44.0323    0.0000 </r>
       <r>   44.8509    0.0000 </r>
       <r>   47.1695    0.0000 </r>
       <r>   51.0850    0.0000 </r>
       <r>   52.4000    0.0000 </r>
       <r>   52.4000    0.0000 </r>
       <r>   53.5459    0.0000 </r>
       <r>   60.0483    0.0000 </r>
       <r>   62.9071    0.0000 </r>
       <r>   62.9071    0.0000 </r>
       <r>   63.6536    0.0000 </r>
       <r>   65.2591    0.0000 </r>
       <r>   68.7083    0.0000 </r>
       <r>   69.6676    0.0000 </r>
       <r>   70.4359    0.0000 </r>
       <r>   70.4359    0.0000 </r>
       <r>   70.4790    0.0000 </r>
       <r>   72.1658    0.0000 </r>
       <r>   72.1658    0.0000 </r>
       <r>   74.0095    0.0000 </r>
       <r>   74.9648    0.0000 </r>
       <r>   78.1205    0.0000 </r>
       <r>   78.1205    0.0000 </r>
       <r>   81.5055    0.0000 </r>
       <r>   82.4944    0.0000 </r>
       <r>   87.1917    0.0000 </r>
       <r>   87.1917    0.0000 </r>
       <r>   90.8989    0.0000 </r>
       <r>   92.8720    0.0000 </r>
      </set>
      <set comment="kpoint 17">
       <r>   -3.1993    1.0000 </r>
       <r>    1.1134    1.0000 </r>
       <r>    4.9165    1.0000 </r>
       <r>    4.9165    1.0000 </r>
       <r>    9.6003    0.0000 </r>
       <r>   12.4088    0.0000 </r>
       <r>   21.2958    0.0000 </r>
       <r>   21.2958    0.0000 </r>
       <r>   22.0863    0.0000 </r>
       <r>   27.0748    0.0000 </r>
       <r>   30.2998    0.0000 </r>
       <r>   30.3417    0.0000 </r>
       <r>   30.3417    0.0000 </r>
       <r>   33.7469    0.0000 </r>
       <r>   35.0490    0.0000 </r>
       <r>   35.0490    0.0000 </r>
       <r>   35.5411    0.0000 </r>
       <r>   38.6265    0.0000 </r>
       <r>   43.2195    0.0000 </r>
       <r>   43.2195    0.0000 </r>
       <r>   43.8426    0.0000 </r>
       <r>   46.2630    0.0000 </r>
       <r>   51.2793    0.0000 </r>
       <r>   52.0267    0.0000 </r>
       <r>   52.0267    0.0000 </r>
       <r>   54.6803    0.0000 </r>
       <r>   60.0003    0.0000 </r>
       <r>   62.8004    0.0000 </r>
       <r>   62.8004    0.0000 </r>
       <r>   64.0298    0.0000 </r>
       <r>   65.1854    0.0000 </r>
       <r>   67.7358    0.0000 </r>
       <r>   69.4022    0.0000 </r>
       <r>   70.2465    0.0000 </r>
       <r>   70.2465    0.0000 </r>
       <r>   70.3478    0.0000 </r>
       <r>   72.0606    0.0000 </r>
       <r>   72.0606    0.0000 </r>
       <r>   72.8750    0.0000 </r>
       <r>   74.8136    0.0000 </r>
       <r>   79.4965    0.0000 </r>
       <r>   79.4965    0.0000 </r>
       <r>   82.1983    0.0000 </r>
       <r>   83.4041    0.0000 </r>
       <r>   87.9621    0.0000 </r>
       <r>   87.9621    0.0000 </r>
       <r>   92.1395    0.0000 </r>
       <r>   92.1402    0.0000 </r>
      </set>
      <set comment="kpoint 18">
       <r>   -2.8117    1.0000 </r>
       <r>    0.6604    1.0000 </r>
       <r>    4.8438    1.0000 </r>
       <r>    4.8438    1.0000 </r>
       <r>    9.4405    0.0000 </r>
       <r>   12.2995    0.0000 </r>
       <r>   21.5685    0.0000 </r>
       <r>   21.5685    0.0000 </r>
       <r>   22.3292    0.0000 </r>
       <r>   27.4903    0.0000 </r>
       <r>   30.1204    0.0000 </r>
       <r>   30.1204    0.0000 </r>
       <r>   30.2976    0.0000 </r>
       <r>   33.1269    0.0000 </r>
       <r>   35.6890    0.0000 </r>
       <r>   35.6890    0.0000 </r>
       <r>   36.4349    0.0000 </r>
       <r>   39.1068    0.0000 </r>
       <r>   42.4442    0.0000 </r>
       <r>   42.4442    0.0000 </r>
       <r>   42.9156    0.0000 </r>
       <r>   45.4258    0.0000 </r>
       <r>   51.4481    0.0000 </r>
       <r>   51.7844    0.0000 </r>
       <r>   51.7844    0.0000 </r>
       <r>   55.5682    0.0000 </r>
       <r>   60.3731    0.0000 </r>
       <r>   62.7187    0.0000 </r>
       <r>   62.7187    0.0000 </r>
       <r>   64.3662    0.0000 </r>
       <r>   65.1283    0.0000 </r>
       <r>   66.3786    0.0000 </r>
       <r>   69.3341    0.0000 </r>
       <r>   70.1021    0.0000 </r>
       <r>   70.1021    0.0000 </r>
       <r>   70.2523    0.0000 </r>
       <r>   71.9796    0.0000 </r>
       <r>   71.9796    0.0000 </r>
       <r>   72.0485    0.0000 </r>
       <r>   74.7192    0.0000 </r>
       <r>   80.7704    0.0000 </r>
       <r>   80.7704    0.0000 </r>
       <r>   81.9850    0.0000 </r>
       <r>   85.3361    0.0000 </r>
       <r>   88.4276    0.0000 </r>
       <r>   88.4276    0.0000 </r>
       <r>   91.3438    0.0000 </r>
       <r>   91.3438    0.0000 </r>
      </set>
      <set comment="kpoint 19">
       <r>   -2.5152    1.0000 </r>
       <r>    0.3238    1.0000 </r>
       <r>    4.8000    1.0000 </r>
       <r>    4.8000    1.0000 </r>
       <r>    9.3443    0.0000 </r>
       <r>   12.2342    0.0000 </r>
       <r>   21.7435    0.0000 </r>
       <r>   21.7435    0.0000 </r>
       <r>   22.4806    0.0000 </r>
       <r>   27.7917    0.0000 </r>
       <r>   29.9570    0.0000 </r>
       <r>   29.9570    0.0000 </r>
       <r>   30.2864    0.0000 </r>
       <r>   32.7028    0.0000 </r>
       <r>   36.2148    0.0000 </r>
       <r>   36.2148    0.0000 </r>
       <r>   37.1684    0.0000 </r>
       <r>   39.4221    0.0000 </r>
       <r>   41.8458    0.0000 </r>
       <r>   41.8458    0.0000 </r>
       <r>   42.2521    0.0000 </r>
       <r>   44.7902    0.0000 </r>
       <r>   51.5646    0.0000 </r>
       <r>   51.6503    0.0000 </r>
       <r>   51.6503    0.0000 </r>
       <r>   56.0432    0.0000 </r>
       <r>   61.1823    0.0000 </r>
       <r>   62.6679    0.0000 </r>
       <r>   62.6679    0.0000 </r>
       <r>   64.5910    0.0000 </r>
       <r>   64.9953    0.0000 </r>
       <r>   65.0926    0.0000 </r>
       <r>   69.3076    0.0000 </r>
       <r>   70.0125    0.0000 </r>
       <r>   70.0125    0.0000 </r>
       <r>   70.1945    0.0000 </r>
       <r>   71.5504    0.0000 </r>
       <r>   71.9294    0.0000 </r>
       <r>   71.9294    0.0000 </r>
       <r>   74.6679    0.0000 </r>
       <r>   81.7576    0.0000 </r>
       <r>   81.7576    0.0000 </r>
       <r>   81.8596    0.0000 </r>
       <r>   87.2921    0.0000 </r>
       <r>   88.4161    0.0000 </r>
       <r>   88.4161    0.0000 </r>
       <r>   90.9740    0.0000 </r>
       <r>   90.9740    0.0000 </r>
      </set>
      <set comment="kpoint 20">
       <r>   -2.3983    1.0000 </r>
       <r>    0.1933    1.0000 </r>
       <r>    4.7853    1.0000 </r>
       <r>    4.7853    1.0000 </r>
       <r>    9.3122    0.0000 </r>
       <r>   12.2125    0.0000 </r>
       <r>   21.8037    0.0000 </r>
       <r>   21.8037    0.0000 </r>
       <r>   22.5316    0.0000 </r>
       <r>   27.9047    0.0000 </r>
       <r>   29.8976    0.0000 </r>
       <r>   29.8976    0.0000 </r>
       <r>   30.2808    0.0000 </r>
       <r>   32.5487    0.0000 </r>
       <r>   36.4263    0.0000 </r>
       <r>   36.4263    0.0000 </r>
       <r>   37.4858    0.0000 </r>
       <r>   39.5003    0.0000 </r>
       <r>   41.6106    0.0000 </r>
       <r>   41.6106    0.0000 </r>
       <r>   42.0204    0.0000 </r>
       <r>   44.5406    0.0000 </r>
       <r>   51.6057    0.0000 </r>
       <r>   51.6057    0.0000 </r>
       <r>   51.6061    0.0000 </r>
       <r>   56.1751    0.0000 </r>
       <r>   61.7980    0.0000 </r>
       <r>   62.6503    0.0000 </r>
       <r>   62.6503    0.0000 </r>
       <r>   64.1660    0.0000 </r>
       <r>   64.7106    0.0000 </r>
       <r>   65.0799    0.0000 </r>
       <r>   69.2941    0.0000 </r>
       <r>   69.9809    0.0000 </r>
       <r>   69.9809    0.0000 </r>
       <r>   70.1750    0.0000 </r>
       <r>   71.3834    0.0000 </r>
       <r>   71.9119    0.0000 </r>
       <r>   71.9119    0.0000 </r>
       <r>   74.6516    0.0000 </r>
       <r>   81.8094    0.0000 </r>
       <r>   82.1511    0.0000 </r>
       <r>   82.1511    0.0000 </r>
       <r>   88.2781    0.0000 </r>
       <r>   88.2781    0.0000 </r>
       <r>   89.2235    0.0000 </r>
       <r>   89.3035    0.0000 </r>
       <r>   90.9224    0.0000 </r>
      </set>
      <set comment="kpoint 21">
       <r>   -2.3983    1.0000 </r>
       <r>    0.1933    1.0000 </r>
       <r>    4.7853    1.0000 </r>
       <r>    4.7853    1.0000 </r>
       <r>    9.3122    0.0000 </r>
       <r>   12.2125    0.0000 </r>
       <r>   21.8037    0.0000 </r>
       <r>   21.8037    0.0000 </r>
       <r>   22.5316    0.0000 </r>
       <r>   27.9047    0.0000 </r>
       <r>   29.8976    0.0000 </r>
       <r>   29.8976    0.0000 </r>
       <r>   30.2808    0.0000 </r>
       <r>   32.5487    0.0000 </r>
       <r>   36.4263    0.0000 </r>
       <r>   36.4263    0.0000 </r>
       <r>   37.4858    0.0000 </r>
       <r>   39.5003    0.0000 </r>
       <r>   41.6106    0.0000 </r>
       <r>   41.6106    0.0000 </r>
       <r>   42.0204    0.0000 </r>
       <r>   44.5406    0.0000 </r>
       <r>   51.6057    0.0000 </r>
       <r>   51.6057    0.0000 </r>
       <r>   51.6061    0.0000 </r>
       <r>   56.1751    0.0000 </r>
       <r>   61.7980    0.0000 </r>
       <r>   62.6503    0.0000 </r>
       <r>   62.6503    0.0000 </r>
       <r>   64.1660    0.0000 </r>
       <r>   64.7106    0.0000 </r>
       <r>   65.0799    0.0000 </r>
       <r>   69.2941    0.0000 </r>
       <r>   69.9809    0.0000 </r>
       <r>   69.9809    0.0000 </r>
       <r>   70.1750    0.0000 </r>
       <r>   71.3834    0.0000 </r>
       <r>   71.9119    0.0000 </r>
       <r>   71.9119    0.0000 </r>
       <r>   74.6516    0.0000 </r>
       <r>   81.8094    0.0000 </r>
       <r>   82.1511    0.0000 </r>
       <r>   82.1511    0.0000 </r>
       <r>   88.2781    0.0000 </r>
       <r>   88.2781    0.0000 </r>
       <r>   89.2235    0.0000 </r>
       <r>   89.3035    0.0000 </r>
       <r>   90.9224    0.0000 </r>
      </set>
      <set comment="kpoint 22">
       <r>   -2.3976    1.0000 </r>
       <r>    0.1951    1.0000 </r>
       <r>    4.7703    1.0000 </r>
       <r>    4.7870    1.0000 </r>
       <r>    9.3240    0.0000 </r>
       <r>   12.2231    0.0000 </r>
       <r>   21.7956    0.0000 </r>
       <r>   21.7982    0.0000 </r>
       <r>   22.5243    0.0000 </r>
       <r>   27.8698    0.0000 </r>
       <r>   29.8647    0.0000 </r>
       <r>   29.9263    0.0000 </r>
       <r>   30.3275    0.0000 </r>
       <r>   32.5613    0.0000 </r>
       <r>   36.3643    0.0000 </r>
       <r>   36.4360    0.0000 </r>
       <r>   37.5362    0.0000 </r>
       <r>   39.4828    0.0000 </r>
       <r>   41.5433    0.0000 </r>
       <r>   41.6170    0.0000 </r>
       <r>   42.1114    0.0000 </r>
       <r>   44.5543    0.0000 </r>
       <r>   51.3538    0.0000 </r>
       <r>   51.6057    0.0000 </r>
       <r>   51.8228    0.0000 </r>
       <r>   56.1905    0.0000 </r>
       <r>   61.7599    0.0000 </r>
       <r>   62.6488    0.0000 </r>
       <r>   62.6766    0.0000 </r>
       <r>   64.1655    0.0000 </r>
       <r>   64.7332    0.0000 </r>
       <r>   65.0322    0.0000 </r>
       <r>   69.2073    0.0000 </r>
       <r>   69.5355    0.0000 </r>
[...]
        <r>  0.0237  0.0000  0.0000  0.0288  0.0000  0.0000  0.0000  0.0000  0.0000 </r>
       </set>
       <set comment="band 12">
        <r>  0.0000  0.0000  0.0000  0.1845  0.0000  0.0000  0.0000  0.0000  0.0000 </r>
        <r>  0.0000  0.0014  0.0280  0.0000  0.0000  0.0000  0.0000  0.0000  0.0000 </r>
       </set>
       <set comment="band 13">
        <r>  0.0000  0.3061  0.0212  0.0000  0.0000  0.0000  0.0000  0.0000  0.0000 </r>
        <r>  0.1747  0.0000  0.0000  0.0008  0.0000  0.0000  0.0000  0.0000  0.0000 </r>
       </set>
       <set comment="band 14">
        <r>  0.0000  0.0000  0.0000  0.0000  0.0000  0.0000  0.0000  0.0000  0.0000 </r>
        <r>  0.0000  0.0000  0.0000  0.0004  0.0000  0.0000  0.0000  0.0000  0.0000 </r>
       </set>
       <set comment="band 15">
        <r>  0.0001  0.0000  0.0000  0.0279  0.0000  0.0000  0.0000  0.0000  0.0000 </r>
        <r>  0.0000  0.0005  0.0817  0.0000  0.0000  0.0000  0.0000  0.0000  0.0000 </r>
       </set>
       <set comment="band 16">
        <r>  0.0000  0.0004  0.0309  0.0000  0.0000  0.0000  0.0000  0.0000  0.0000 </r>
        <r>  0.0006  0.0000  0.0000  0.0891  0.0000  0.0000  0.0000  0.0000  0.0000 </r>
       </set>
       <set comment="band 17">
        <r>  0.0003  0.0000  0.0000  0.0033  0.0000  0.0000  0.0000  0.0000  0.0000 </r>
        <r>  0.0000  0.0055  0.0077  0.0000  0.0000  0.0000  0.0000  0.0000  0.0000 </r>
       </set>
       <set comment="band 18">
        <r>  0.0000  0.0270  0.0018  0.0000  0.0000  0.0000  0.0000  0.0000  0.0000 </r>
        <r>  0.0642  0.0000  0.0000  0.0003  0.0000  0.0000  0.0000  0.0000  0.0000 </r>
       </set>
       <set comment="band 19">
        <r>  0.0000  0.0586  0.0367  0.0000  0.0000  0.0000  0.0000  0.0000  0.0000 </r>
        <r>  0.0075  0.0000  0.0000  0.0016  0.0000  0.0000  0.0000  0.0000  0.0000 </r>
       </set>
       <set comment="band 20">
        <r>  0.0015  0.0000  0.0000  0.0476  0.0000  0.0000  0.0000  0.0000  0.0000 </r>
        <r>  0.0000  0.0000  0.0011  0.0000  0.0000  0.0000  0.0000  0.0000  0.0000 </r>
       </set>
       <set comment="band 21">
        <r>  0.0000  0.1429  0.0109  0.0000  0.0000  0.0000  0.0000  0.0000  0.0000 </r>
        <r>  0.0077  0.0000  0.0000  0.0000  0.0000  0.0000  0.0000  0.0000  0.0000 </r>
       </set>
       <set comment="band 22">
        <r>  0.1758  0.0000  0.0000  0.0023  0.0000  0.0000  0.0000  0.0000  0.0000 </r>
        <r>  0.0000  0.0001  0.0000  0.0000  0.0000  0.0000  0.0000  0.0000  0.0000 </r>
       </set>
       <set comment="band 23">
        <r>  0.0000  0.0040  0.0054  0.0000  0.0000  0.0000  0.0000  0.0000  0.0000 </r>
        <r>  0.0001  0.0000  0.0000  0.0719  0.0000  0.0000  0.0000  0.0000  0.0000 </r>
       </set>
       <set comment="band 24">
        <r>  0.0007  0.0000  0.0000  0.0049  0.0000  0.0000  0.0000  0.0000  0.0000 </r>
        <r>  0.0000  0.0000  0.1509  0.0000  0.0000  0.0000  0.0000  0.0000  0.0000 </r>
       </set>
       <set comment="band 25">
        <r>  0.0000  0.0017  0.0007  0.0000  0.0000  0.0000  0.0000  0.0000  0.0000 </r>
        <r>  0.0007  0.0000  0.0000  0.0802  0.0000  0.0000  0.0000  0.0000  0.0000 </r>
       </set>
       <set comment="band 26">
        <r>  0.0683  0.0000  0.0000  0.0001  0.0000  0.0000  0.0000  0.0000  0.0000 </r>
        <r>  0.0000  0.0392  0.0015  0.0000  0.0000  0.0000  0.0000  0.0000  0.0000 </r>
       </set>
       <set comment="band 27">
        <r>  0.0066  0.0000  0.0000  0.0193  0.0000  0.0000  0.0000  0.0000  0.0000 </r>
        <r>  0.0000  0.0137  0.0000  0.0000  0.0000  0.0000  0.0000  0.0000  0.0000 </r>
       </set>
       <set comment="band 28">
        <r>  0.0000  0.0013  0.2046  0.0000  0.0000  0.0000  0.0000  0.0000  0.0000 </r>
        <r>  0.0017  0.0000  0.0000  0.0043  0.0000  0.0000  0.0000  0.0000  0.0000 </r>
       </set>
       <set comment="band 29">
        <r>  0.0005  0.0000  0.0000  0.1873  0.0000  0.0000  0.0000  0.0000  0.0000 </r>
        <r>  0.0000  0.0018  0.0058  0.0000  0.0000  0.0000  0.0000  0.0000  0.0000 </r>
       </set>
       <set comment="band 30">
        <r>  0.0000  0.0245  0.0000  0.0000  0.0000  0.0000  0.0000  0.0000  0.0000 </r>
        <r>  0.0312  0.0000  0.0000  0.0002  0.0000  0.0000  0.0000  0.0000  0.0000 </r>
       </set>
       <set comment="band 31">
        <r>  0.0000  0.0440  0.0048  0.0000  0.0000  0.0000  0.0000  0.0000  0.0000 </r>
        <r>  0.0696  0.0000  0.0000  0.0019  0.0000  0.0000  0.0000  0.0000  0.0000 </r>
       </set>
       <set comment="band 32">
        <r>  0.0000  0.0000  0.0000  0.0046  0.0000  0.0000  0.0000  0.0000  0.0000 </r>
        <r>  0.0000  0.0000  0.0001  0.0000  0.0000  0.0000  0.0000  0.0000  0.0000 </r>
       </set>
       <set comment="band 33">
        <r>  0.0189  0.0000  0.0000  0.0009  0.0000  0.0000  0.0000  0.0000  0.0000 </r>
        <r>  0.0000  0.1087  0.0021  0.0000  0.0000  0.0000  0.0000  0.0000  0.0000 </r>
       </set>
       <set comment="band 34">
        <r>  0.0000  0.0001  0.0223  0.0000  0.0000  0.0000  0.0000  0.0000  0.0000 </r>
        <r>  0.0009  0.0000  0.0000  0.0144  0.0000  0.0000  0.0000  0.0000  0.0000 </r>
       </set>
       <set comment="band 35">
        <r>  0.0051  0.0000  0.0000  0.0303  0.0000  0.0000  0.0000  0.0000  0.0000 </r>
        <r>  0.0000  0.0034  0.0292  0.0000  0.0000  0.0000  0.0000  0.0000  0.0000 </r>
       </set>
       <set comment="band 36">
        <r>  0.0000  0.0003  0.0051  0.0000  0.0000  0.0000  0.0000  0.0000  0.0000 </r>
        <r>  0.0010  0.0000  0.0000  0.0175  0.0000  0.0000  0.0000  0.0000  0.0000 </r>
       </set>
       <set comment="band 37">
        <r>  0.2258  0.0000  0.0000  0.0219  0.0000  0.0000  0.0000  0.0000  0.0000 </r>
        <r>  0.0000  0.0109  0.0001  0.0000  0.0000  0.0000  0.0000  0.0000  0.0000 </r>
       </set>
       <set comment="band 38">
        <r>  0.0000  0.0003  0.0803  0.0000  0.0000  0.0000  0.0000  0.0000  0.0000 </r>
        <r>  0.0009  0.0000  0.0000  0.0078  0.0000  0.0000  0.0000  0.0000  0.0000 </r>
       </set>
       <set comment="band 39">
        <r>  0.0275  0.0000  0.0000  0.0526  0.0000  0.0000  0.0000  0.0000  0.0000 </r>
        <r>  0.0000  0.0038  0.0112  0.0000  0.0000  0.0000  0.0000  0.0000  0.0000 </r>
       </set>
       <set comment="band 40">
        <r>  0.0000  0.0202  0.0000  0.0000  0.0000  0.0000  0.0000  0.0000  0.0000 </r>
        <r>  0.0240  0.0000  0.0000  0.0029  0.0000  0.0000  0.0000  0.0000  0.0000 </r>
       </set>
       <set comment="band 41">
        <r>  0.3416  0.0000  0.0000  0.0005  0.0000  0.0000  0.0000  0.0000  0.0000 </r>
        <r>  0.0000  0.1161  0.0012  0.0000  0.0000  0.0000  0.0000  0.0000  0.0000 </r>
       </set>
       <set comment="band 42">
        <r>  0.0000  0.0019  0.0001  0.0000  0.0000  0.0000  0.0000  0.0000  0.0000 </r>
        <r>  0.0002  0.0000  0.0000  0.0089  0.0000  0.0000  0.0000  0.0000  0.0000 </r>
       </set>
       <set comment="band 43">
        <r>  0.0993  0.0000  0.0000  0.0000  0.0000  0.0000  0.0000  0.0000  0.0000 </r>
        <r>  0.0000  0.0356  0.0081  0.0000  0.0000  0.0000  0.0000  0.0000  0.0000 </r>
       </set>
       <set comment="band 44">
        <r>  0.0001  0.0000  0.0000  0.2822  0.0000  0.0000  0.0000  0.0000  0.0000 </r>
        <r>  0.0000  0.0005  0.0782  0.0000  0.0000  0.0000  0.0000  0.0000  0.0000 </r>
       </set>
       <set comment="band 45">
        <r>  0.0000  0.0005  0.2762  0.0000  0.0000  0.0000  0.0000  0.0000  0.0000 </r>
        <r>  0.0004  0.0000  0.0000  0.0852  0.0000  0.0000  0.0000  0.0000  0.0000 </r>
       </set>
       <set comment="band 46">
        <r>  0.0000  0.0000  0.0000  0.0055  0.0000  0.0000  0.0000  0.0000  0.0000 </r>
        <r>  0.0000  0.0000  0.0195  0.0000  0.0000  0.0000  0.0000  0.0000  0.0000 </r>
       </set>
       <set comment="band 47">
        <r>  0.0000  0.0000  0.0100  0.0000  0.0000  0.0000  0.0000  0.0000  0.0000 </r>
        <r>  0.0000  0.0000  0.0000  0.0053  0.0000  0.0000  0.0000  0.0000  0.0000 </r>
       </set>
       <set comment="band 48">
        <r>  0.0000  0.0032  0.0209  0.0000  0.0000  0.0000  0.0000  0.0000  0.0000 </r>
        <r>  0.0001  0.0000  0.0001  0.0741  0.0000  0.0000  0.0000  0.0000  0.0000 </r>
       </set>
      </set>
      <set comment="kpoint 240">
       <set comment="band 1">
        <r>  0.0000  0.1325  0.0000  0.0000  0.0000  0.0000  0.0000  0.0000  0.0000 </r>
        <r>  0.4305  0.0000  0.0000  0.0000  0.0000  0.0000  0.0000  0.0000  0.0000 </r>
       </set>
       <set comment="band 2">
        <r>  0.3492  0.0000  0.0000  0.0000  0.0000  0.0000  0.0000  0.0000  0.0000 </r>
        <r>  0.0000  0.1842  0.0000  0.0000  0.0000  0.0000  0.0000  0.0000  0.0000 </r>
       </set>
       <set comment="band 3">
        <r>  0.0000  0.0000  0.1116  0.1116  0.0000  0.0000  0.0000  0.0000  0.0000 </r>
        <r>  0.0000  0.0000  0.1574  0.1574  0.0000  0.0000  0.0000  0.0000  0.0000 </r>
       </set>
       <set comment="band 4">
        <r>  0.0000  0.0000  0.1116  0.1116  0.0000  0.0000  0.0000  0.0000  0.0000 </r>
        <r>  0.0000  0.0000  0.1574  0.1574  0.0000  0.0000  0.0000  0.0000  0.0000 </r>
       </set>
       <set comment="band 5">
        <r>  0.0000  0.0988  0.0000  0.0000  0.0000  0.0000  0.0000  0.0000  0.0000 </r>
        <r>  0.0909  0.0000  0.0000  0.0000  0.0000  0.0000  0.0000  0.0000  0.0000 </r>
       </set>
       <set comment="band 6">
        <r>  0.2532  0.0000  0.0000  0.0000  0.0000  0.0000  0.0000  0.0000  0.0000 </r>
        <r>  0.0000  0.0348  0.0000  0.0000  0.0000  0.0000  0.0000  0.0000  0.0000 </r>
       </set>
       <set comment="band 7">
        <r>  0.0000  0.0000  0.1062  0.1062  0.0000  0.0000  0.0000  0.0000  0.0000 </r>
        <r>  0.0000  0.0000  0.1551  0.1551  0.0000  0.0000  0.0000  0.0000  0.0000 </r>
       </set>
       <set comment="band 8">
        <r>  0.0000  0.0000  0.1062  0.1062  0.0000  0.0000  0.0000  0.0000  0.0000 </r>
        <r>  0.0000  0.0000  0.1551  0.1551  0.0000  0.0000  0.0000  0.0000  0.0000 </r>
       </set>
       <set comment="band 9">
        <r>  0.0764  0.0000  0.0000  0.0000  0.0000  0.0000  0.0000  0.0000  0.0000 </r>
        <r>  0.0000  0.5475  0.0000  0.0000  0.0000  0.0000  0.0000  0.0000  0.0000 </r>
       </set>
       <set comment="band 10">
        <r>  0.0000  0.0000  0.0000  0.0000  0.0000  0.0000  0.0000  0.0000  0.0000 </r>
        <r>  0.0000  0.0000  0.0000  0.0000  0.0000  0.0000  0.0000  0.0000  0.0000 </r>
       </set>
       <set comment="band 11">
        <r>  0.0000  0.0000  0.0957  0.0962  0.0000  0.0000  0.0000  0.0000  0.0000 </r>
        <r>  0.0000  0.0000  0.0139  0.0138  0.0000  0.0000  0.0000  0.0000  0.0000 </r>
       </set>
       <set comment="band 12">
        <r>  0.0000  0.0000  0.0962  0.0957  0.0000  0.0000  0.0000  0.0000  0.0000 </r>
        <r>  0.0000  0.0000  0.0138  0.0139  0.0000  0.0000  0.0000  0.0000  0.0000 </r>
       </set>
       <set comment="band 13">
        <r>  0.0000  0.3582  0.0000  0.0000  0.0000  0.0000  0.0000  0.0000  0.0000 </r>
        <r>  0.1991  0.0000  0.0000  0.0000  0.0000  0.0000  0.0000  0.0000  0.0000 </r>
       </set>
       <set comment="band 14">
        <r>  0.0000  0.0000  0.0000  0.0000  0.0000  0.0000  0.0000  0.0000  0.0000 </r>
        <r>  0.0000  0.0000  0.0000  0.0000  0.0000  0.0000  0.0000  0.0000  0.0000 </r>
       </set>
       <set comment="band 15">
        <r>  0.0000  0.0000  0.0155  0.0155  0.0000  0.0000  0.0000  0.0000  0.0000 </r>
        <r>  0.0000  0.0000  0.0449  0.0448  0.0000  0.0000  0.0000  0.0000  0.0000 </r>
       </set>
       <set comment="band 16">
        <r>  0.0000  0.0000  0.0155  0.0155  0.0000  0.0000  0.0000  0.0000  0.0000 </r>
        <r>  0.0000  0.0000  0.0448  0.0449  0.0000  0.0000  0.0000  0.0000  0.0000 </r>
       </set>
       <set comment="band 17">
        <r>  0.0001  0.0000  0.0000  0.0000  0.0000  0.0000  0.0000  0.0000  0.0000 </r>
        <r>  0.0000  0.0060  0.0000  0.0000  0.0000  0.0000  0.0000  0.0000  0.0000 </r>
       </set>
       <set comment="band 18">
        <r>  0.0000  0.0304  0.0000  0.0000  0.0000  0.0000  0.0000  0.0000  0.0000 </r>
        <r>  0.0668  0.0000  0.0000  0.0000  0.0000  0.0000  0.0000  0.0000  0.0000 </r>
       </set>
       <set comment="band 19">
        <r>  0.0000  0.0000  0.0247  0.0247  0.0000  0.0000  0.0000  0.0000  0.0000 </r>
        <r>  0.0000  0.0000  0.0005  0.0005  0.0000  0.0000  0.0000  0.0000  0.0000 </r>
       </set>
       <set comment="band 20">
        <r>  0.0000  0.0000  0.0247  0.0247  0.0000  0.0000  0.0000  0.0000  0.0000 </r>
        <r>  0.0000  0.0000  0.0005  0.0005  0.0000  0.0000  0.0000  0.0000  0.0000 </r>
       </set>
       <set comment="band 21">
        <r>  0.0000  0.1987  0.0000  0.0000  0.0000  0.0000  0.0000  0.0000  0.0000 </r>
        <r>  0.0134  0.0000  0.0000  0.0000  0.0000  0.0000  0.0000  0.0000  0.0000 </r>
       </set>
       <set comment="band 22">
        <r>  0.1781  0.0000  0.0000  0.0000  0.0000  0.0000  0.0000  0.0000  0.0000 </r>
        <r>  0.0000  0.0001  0.0000  0.0000  0.0000  0.0000  0.0000  0.0000  0.0000 </r>
       </set>
       <set comment="band 23">
        <r>  0.0000  0.0000  0.0025  0.0025  0.0000  0.0000  0.0000  0.0000  0.0000 </r>
        <r>  0.0000  0.0000  0.0765  0.0765  0.0000  0.0000  0.0000  0.0000  0.0000 </r>
       </set>
       <set comment="band 24">
        <r>  0.0000  0.0000  0.0025  0.0025  0.0000  0.0000  0.0000  0.0000  0.0000 </r>
        <r>  0.0000  0.0000  0.0765  0.0765  0.0000  0.0000  0.0000  0.0000  0.0000 </r>
       </set>
       <set comment="band 25">
        <r>  0.0000  0.0054  0.0000  0.0000  0.0000  0.0000  0.0000  0.0000  0.0000 </r>
        <r>  0.0001  0.0000  0.0000  0.0000  0.0000  0.0000  0.0000  0.0000  0.0000 </r>
       </set>
       <set comment="band 26">
        <r>  0.0688  0.0000  0.0000  0.0000  0.0000  0.0000  0.0000  0.0000  0.0000 </r>
        <r>  0.0000  0.0391  0.0000  0.0000  0.0000  0.0000  0.0000  0.0000  0.0000 </r>
       </set>
       <set comment="band 27">
        <r>  0.0051  0.0000  0.0000  0.0000  0.0000  0.0000  0.0000  0.0000  0.0000 </r>
        <r>  0.0000  0.0157  0.0000  0.0000  0.0000  0.0000  0.0000  0.0000  0.0000 </r>
       </set>
       <set comment="band 28">
        <r>  0.0000  0.0000  0.1081  0.1024  0.0000  0.0000  0.0000  0.0000  0.0000 </r>
        <r>  0.0000  0.0000  0.0025  0.0026  0.0000  0.0000  0.0000  0.0000  0.0000 </r>
       </set>
       <set comment="band 29">
        <r>  0.0000  0.0000  0.1024  0.1081  0.0000  0.0000  0.0000  0.0000  0.0000 </r>
        <r>  0.0000  0.0000  0.0026  0.0025  0.0000  0.0000  0.0000  0.0000  0.0000 </r>
       </set>
       <set comment="band 30">
        <r>  0.0000  0.0261  0.0000  0.0000  0.0000  0.0000  0.0000  0.0000  0.0000 </r>
        <r>  0.0294  0.0000  0.0000  0.0000  0.0000  0.0000  0.0000  0.0000  0.0000 </r>
       </set>
       <set comment="band 31">
        <r>  0.0000  0.0437  0.0000  0.0000  0.0000  0.0000  0.0000  0.0000  0.0000 </r>
        <r>  0.0745  0.0000  0.0000  0.0000  0.0000  0.0000  0.0000  0.0000  0.0000 </r>
       </set>
       <set comment="band 32">
        <r>  0.0000  0.0000  0.0000  0.0000  0.0000  0.0000  0.0000  0.0000  0.0000 </r>
        <r>  0.0000  0.0000  0.0000  0.0000  0.0000  0.0000  0.0000  0.0000  0.0000 </r>
       </set>
       <set comment="band 33">
        <r>  0.0241  0.0000  0.0000  0.0000  0.0000  0.0000  0.0000  0.0000  0.0000 </r>
        <r>  0.0000  0.1208  0.0000  0.0000  0.0000  0.0000  0.0000  0.0000  0.0000 </r>
       </set>
       <set comment="band 34">
        <r>  0.0000  0.0000  0.0169  0.0169  0.0000  0.0000  0.0000  0.0000  0.0000 </r>
        <r>  0.0000  0.0000  0.0154  0.0154  0.0000  0.0000  0.0000  0.0000  0.0000 </r>
       </set>
       <set comment="band 35">
        <r>  0.0000  0.0000  0.0169  0.0169  0.0000  0.0000  0.0000  0.0000  0.0000 </r>
        <r>  0.0000  0.0000  0.0154  0.0154  0.0000  0.0000  0.0000  0.0000  0.0000 </r>
       </set>
       <set comment="band 36">
        <r>  0.0000  0.0000  0.0000  0.0000  0.0000  0.0000  0.0000  0.0000  0.0000 </r>
        <r>  0.0000  0.0000  0.0000  0.0000  0.0000  0.0000  0.0000  0.0000  0.0000 </r>
       </set>
       <set comment="band 37">
        <r>  0.2548  0.0000  0.0000  0.0000  0.0000  0.0000  0.0000  0.0000  0.0000 </r>
        <r>  0.0000  0.0052  0.0000  0.0000  0.0000  0.0000  0.0000  0.0000  0.0000 </r>
       </set>
       <set comment="band 38">
        <r>  0.0000  0.0000  0.0367  0.0366  0.0000  0.0000  0.0000  0.0000  0.0000 </r>
        <r>  0.0000  0.0000  0.0060  0.0060  0.0000  0.0000  0.0000  0.0000  0.0000 </r>
       </set>
       <set comment="band 39">
        <r>  0.0000  0.0000  0.0366  0.0367  0.0000  0.0000  0.0000  0.0000  0.0000 </r>
        <r>  0.0000  0.0000  0.0060  0.0060  0.0000  0.0000  0.0000  0.0000  0.0000 </r>
       </set>
       <set comment="band 40">
        <r>  0.0000  0.0211  0.0000  0.0000  0.0000  0.0000  0.0000  0.0000  0.0000 </r>
        <r>  0.0260  0.0000  0.0000  0.0000  0.0000  0.0000  0.0000  0.0000  0.0000 </r>
       </set>
       <set comment="band 41">
        <r>  0.4423  0.0000  0.0000  0.0000  0.0000  0.0000  0.0000  0.0000  0.0000 </r>
        <r>  0.0000  0.1534  0.0000  0.0000  0.0000  0.0000  0.0000  0.0000  0.0000 </r>
       </set>
       <set comment="band 42">
        <r>  0.0000  0.0000  0.0000  0.0000  0.0000  0.0000  0.0000  0.0000  0.0000 </r>
        <r>  0.0000  0.0000  0.0045  0.0045  0.0000  0.0000  0.0000  0.0000  0.0000 </r>
       </set>
       <set comment="band 43">
        <r>  0.0000  0.0000  0.0000  0.0000  0.0000  0.0000  0.0000  0.0000  0.0000 </r>
        <r>  0.0000  0.0000  0.0045  0.0045  0.0000  0.0000  0.0000  0.0000  0.0000 </r>
       </set>
       <set comment="band 44">
        <r>  0.0000  0.0000  0.1336  0.1547  0.0000  0.0000  0.0000  0.0000  0.0000 </r>
        <r>  0.0000  0.0000  0.0481  0.0416  0.0000  0.0000  0.0000  0.0000  0.0000 </r>
       </set>
       <set comment="band 45">
        <r>  0.0000  0.0000  0.1547  0.1336  0.0000  0.0000  0.0000  0.0000  0.0000 </r>
        <r>  0.0000  0.0000  0.0416  0.0481  0.0000  0.0000  0.0000  0.0000  0.0000 </r>
       </set>
       <set comment="band 46">
        <r>  0.0000  0.0000  0.0000  0.0000  0.0000  0.0000  0.0000  0.0000  0.0000 </r>
        <r>  0.0000  0.0000  0.0000  0.0000  0.0000  0.0000  0.0000  0.0000  0.0000 </r>
       </set>
       <set comment="band 47">
        <r>  0.0000  0.0000  0.0000  0.0000  0.0000  0.0000  0.0000  0.0000  0.0000 </r>
        <r>  0.0000  0.0000  0.0000  0.0000  0.0000  0.0000  0.0000  0.0000  0.0000 </r>
       </set>
       <set comment="band 48">
        <r>  0.0000  0.0000  0.0060  0.0131  0.0000  0.0000  0.0000  0.0000  0.0000 </r>
        <r>  0.0000  0.0000  0.0533  0.0242  0.0000  0.0000  0.0000  0.0000  0.0000 </r>
       </set>
      </set>
     </set>
    </set>
   </array>
  </projected>
 </calculation>
 <structure name="finalpos" >
  <crystal>
   <varray name="basis" >
    <v>       0.00000000       2.18978000       2.18978000 </v>
    <v>       2.18978000       0.00000000       2.18978000 </v>
    <v>       2.18978000       2.18978000       0.00000000 </v>
   </varray>
   <i name="volume">     21.00058778 </i>
   <varray name="rec_basis" >
    <v>      -0.22833344       0.22833344       0.22833344 </v>
    <v>       0.22833344      -0.22833344       0.22833344 </v>
    <v>       0.22833344       0.22833344      -0.22833344 </v>
   </varray>
  </crystal>
  <varray name="positions" >
   <v>       0.25000000       0.25000000       0.25000000 </v>
   <v>       0.00000000       0.00000000       0.00000000 </v>
  </varray>
 </structure>
</modeling>
