unknown system                          
           1
     0.000000    2.189780    2.189780
     2.189780    0.000000    2.189780
     2.189780    2.189780    0.000000
   Si   C 
   1   1
Direct configuration=     1
   0.25000000  0.25000000  0.25000000
   0.00000000  0.00000000  0.00000000
