   8   8   0   0
  0.1050029E+02  0.4379560E-09  0.4379560E-09  0.4379560E-09  0.5000000E-15
  1.000000000000000E-004
  CAR 
 unknown system                          
     32.55340905     -9.24591832  301      8.45348436      1.00000000
     -9.246  0.0000E+00  0.0000E+00
     -9.107  0.0000E+00  0.0000E+00
     -8.967  0.0000E+00  0.0000E+00
     -8.828  0.0000E+00  0.0000E+00
     -8.689  0.0000E+00  0.0000E+00
     -8.549  0.0000E+00  0.0000E+00
     -8.410  0.0000E+00  0.0000E+00
     -8.271  0.0000E+00  0.0000E+00
     -8.131  0.0000E+00  0.0000E+00
     -7.992  0.0000E+00  0.0000E+00
     -7.853  0.1088E-13  0.1517E-14
     -7.713  0.2876E-08  0.4007E-09
     -7.574  0.1798E-04  0.2505E-05
     -7.435  0.3553E-02  0.4976E-03
     -7.295  0.6378E-01  0.9385E-02
     -7.156  0.2720E+00  0.4728E-01
     -7.017  0.3597E+00  0.9739E-01
     -6.877  0.4365E+00  0.1582E+00
     -6.738  0.7902E+00  0.2683E+00
     -6.599  0.4318E+00  0.3285E+00
     -6.459  0.6481E+00  0.4188E+00
     -6.320  0.9970E+00  0.5577E+00
     -6.181  0.8181E+00  0.6717E+00
     -6.041  0.8244E+00  0.7865E+00
     -5.902  0.1169E+01  0.9494E+00
     -5.763  0.4996E+00  0.1019E+01
     -5.623  0.1308E+01  0.1201E+01
     -5.484  0.1366E+01  0.1391E+01
     -5.345  0.1257E+01  0.1567E+01
     -5.205  0.1408E+01  0.1763E+01
     -5.066  0.6127E+00  0.1848E+01
     -4.927  0.1231E+01  0.2020E+01
     -4.787  0.2033E+01  0.2303E+01
     -4.648  0.1583E+01  0.2523E+01
     -4.509  0.1776E+01  0.2771E+01
     -4.369  0.1255E+01  0.2946E+01
     -4.230  0.1856E+01  0.3204E+01
     -4.091  0.2086E+01  0.3495E+01
     -3.951  0.1808E+01  0.3747E+01
     -3.812  0.2093E+01  0.4038E+01
     -3.673  0.2719E+01  0.4417E+01
     -3.533  0.3887E+01  0.4959E+01
     -3.394  0.1586E+01  0.5180E+01
     -3.255  0.2884E+01  0.5582E+01
     -3.115  0.2056E+01  0.5868E+01
     -2.976  0.1703E+01  0.6105E+01
     -2.837  0.2330E+01  0.6430E+01
     -2.697  0.3275E+01  0.6886E+01
     -2.558  0.2888E+01  0.7289E+01
     -2.419  0.1755E+01  0.7533E+01
     -2.279  0.2182E+01  0.7837E+01
     -2.140  0.1046E+01  0.7983E+01
     -2.001  0.1218E+00  0.8000E+01
     -1.861  0.1695E-02  0.8000E+01
     -1.722  0.9272E-06  0.8000E+01
     -1.583  0.1384E-10  0.8000E+01
     -1.443  0.0000E+00  0.8000E+01
     -1.304  0.0000E+00  0.8000E+01
     -1.165  0.0000E+00  0.8000E+01
     -1.025  0.2114E-13  0.8000E+01
     -0.886  0.6742E-08  0.8000E+01
     -0.747  0.4998E-04  0.8000E+01
     -0.607  0.9864E-02  0.8001E+01
     -0.468  0.8975E-01  0.8014E+01
     -0.329  0.4297E+00  0.8074E+01
     -0.189  0.7962E+00  0.8185E+01
     -0.050  0.6818E+00  0.8280E+01
      0.089  0.1323E+01  0.8464E+01
      0.229  0.1573E+01  0.8683E+01
      0.368  0.1646E+01  0.8912E+01
      0.507  0.2255E+01  0.9227E+01
      0.647  0.3563E+01  0.9723E+01
      0.786  0.3721E+01  0.1024E+02
      0.925  0.6198E+01  0.1111E+02
      1.065  0.4641E+01  0.1175E+02
      1.204  0.2447E+01  0.1209E+02
      1.343  0.8882E+00  0.1222E+02
      1.483  0.2544E+01  0.1257E+02
      1.622  0.2130E+01  0.1287E+02
      1.761  0.5183E+00  0.1294E+02
      1.901  0.1496E+01  0.1315E+02
      2.040  0.2291E+01  0.1347E+02
      2.179  0.2286E+01  0.1379E+02
      2.319  0.8922E+00  0.1391E+02
      2.458  0.6380E+00  0.1400E+02
      2.597  0.9059E+00  0.1413E+02
      2.737  0.2424E+01  0.1446E+02
      2.876  0.2926E+01  0.1487E+02
      3.015  0.3890E+01  0.1541E+02
      3.155  0.3070E+01  0.1584E+02
      3.294  0.2312E+01  0.1616E+02
      3.433  0.3305E+01  0.1662E+02
      3.573  0.1440E+01  0.1682E+02
      3.712  0.2206E+01  0.1713E+02
      3.851  0.3764E+01  0.1766E+02
      3.991  0.3244E+01  0.1811E+02
      4.130  0.3092E+01  0.1854E+02
      4.269  0.3020E+01  0.1896E+02
      4.409  0.3953E+01  0.1951E+02
      4.548  0.3598E+01  0.2001E+02
      4.687  0.3723E+01  0.2053E+02
      4.827  0.2464E+01  0.2087E+02
      4.966  0.5014E+01  0.2157E+02
      5.105  0.4836E+01  0.2225E+02
      5.245  0.5956E+01  0.2308E+02
      5.384  0.4352E+01  0.2368E+02
      5.523  0.2975E+01  0.2410E+02
      5.663  0.4255E+01  0.2469E+02
      5.802  0.5171E+01  0.2541E+02
      5.941  0.2996E+01  0.2583E+02
      6.081  0.4654E+01  0.2648E+02
      6.220  0.4899E+01  0.2716E+02
      6.359  0.4631E+01  0.2780E+02
      6.498  0.3606E+01  0.2831E+02
      6.638  0.3193E+01  0.2875E+02
      6.777  0.3819E+01  0.2928E+02
      6.916  0.5247E+01  0.3001E+02
      7.056  0.3620E+01  0.3052E+02
      7.195  0.1670E+01  0.3075E+02
      7.334  0.2488E+01  0.3110E+02
      7.474  0.2248E+01  0.3141E+02
      7.613  0.1389E+01  0.3160E+02
      7.752  0.1722E+01  0.3184E+02
      7.892  0.8034E+00  0.3196E+02
      8.031  0.2881E+00  0.3200E+02
      8.170  0.2693E-01  0.3200E+02
      8.310  0.1099E-03  0.3200E+02
      8.449  0.1297E-07  0.3200E+02
      8.588  0.3907E-13  0.3200E+02
      8.728  0.4669E-17  0.3200E+02
      8.867  0.1303E-10  0.3200E+02
      9.006  0.6462E-06  0.3200E+02
      9.146  0.7828E-03  0.3200E+02
      9.285  0.2902E-01  0.3200E+02
      9.424  0.7756E-01  0.3201E+02
      9.564  0.1184E+00  0.3203E+02
      9.703  0.4874E-01  0.3204E+02
      9.842  0.2274E+00  0.3207E+02
      9.982  0.5484E+00  0.3215E+02
     10.121  0.7175E+00  0.3225E+02
     10.260  0.5208E+00  0.3232E+02
     10.400  0.2381E+00  0.3235E+02
     10.539  0.4616E+00  0.3242E+02
     10.678  0.3777E+00  0.3247E+02
     10.818  0.5592E+00  0.3255E+02
     10.957  0.9688E+00  0.3268E+02
     11.096  0.1706E+01  0.3292E+02
     11.236  0.1308E+01  0.3310E+02
     11.375  0.7970E+00  0.3321E+02
     11.514  0.1434E+01  0.3341E+02
     11.654  0.1472E+01  0.3362E+02
     11.793  0.4859E+00  0.3369E+02
     11.932  0.6967E+00  0.3378E+02
     12.072  0.1354E+01  0.3397E+02
     12.211  0.2172E+01  0.3427E+02
     12.350  0.3721E+01  0.3479E+02
     12.490  0.2848E+01  0.3519E+02
     12.629  0.1999E+01  0.3547E+02
     12.768  0.1892E+01  0.3573E+02
     12.908  0.1389E+01  0.3592E+02
     13.047  0.3505E+01  0.3641E+02
     13.186  0.5627E+01  0.3720E+02
     13.326  0.5024E+01  0.3790E+02
     13.465  0.3568E+01  0.3839E+02
     13.604  0.2786E+01  0.3878E+02
     13.744  0.3276E+01  0.3924E+02
     13.883  0.2235E+01  0.3955E+02
     14.022  0.2555E+01  0.3991E+02
     14.162  0.2039E+01  0.4019E+02
     14.301  0.2793E+01  0.4058E+02
     14.440  0.2624E+01  0.4095E+02
     14.580  0.2133E+01  0.4124E+02
     14.719  0.1408E+01  0.4144E+02
     14.858  0.2401E+01  0.4177E+02
     14.998  0.4789E+01  0.4244E+02
     15.137  0.3973E+01  0.4299E+02
     15.276  0.4962E+01  0.4369E+02
     15.416  0.5629E+01  0.4447E+02
     15.555  0.6075E+01  0.4532E+02
     15.694  0.5713E+01  0.4611E+02
     15.834  0.6751E+01  0.4705E+02
     15.973  0.7019E+01  0.4803E+02
     16.112  0.4405E+01  0.4864E+02
     16.252  0.2750E+01  0.4903E+02
     16.391  0.3549E+01  0.4952E+02
     16.530  0.4804E+01  0.5019E+02
     16.670  0.4313E+01  0.5079E+02
     16.809  0.5633E+01  0.5158E+02
     16.948  0.4108E+01  0.5215E+02
     17.088  0.3924E+01  0.5270E+02
     17.227  0.3181E+01  0.5314E+02
     17.366  0.3386E+01  0.5361E+02
     17.506  0.5013E+01  0.5431E+02
     17.645  0.3659E+01  0.5482E+02
     17.784  0.4155E+01  0.5540E+02
     17.924  0.2704E+01  0.5578E+02
     18.063  0.2802E+01  0.5617E+02
     18.202  0.6340E+01  0.5705E+02
     18.342  0.5657E+01  0.5784E+02
     18.481  0.3612E+01  0.5834E+02
     18.620  0.4371E+01  0.5895E+02
     18.760  0.2564E+01  0.5931E+02
     18.899  0.3368E+01  0.5978E+02
     19.038  0.2559E+01  0.6013E+02
     19.178  0.2838E+01  0.6053E+02
     19.317  0.3208E+01  0.6097E+02
     19.456  0.4048E+01  0.6154E+02
     19.596  0.3972E+01  0.6209E+02
     19.735  0.3275E+01  0.6255E+02
     19.874  0.4195E+01  0.6313E+02
     20.014  0.3342E+01  0.6360E+02
     20.153  0.2495E+01  0.6395E+02
     20.292  0.1290E+01  0.6413E+02
     20.432  0.1232E+01  0.6430E+02
     20.571  0.2819E+01  0.6469E+02
     20.710  0.4026E+01  0.6525E+02
     20.850  0.5419E+01  0.6601E+02
     20.989  0.3957E+01  0.6656E+02
     21.128  0.3805E+01  0.6709E+02
     21.268  0.6417E+01  0.6798E+02
     21.407  0.5913E+01  0.6881E+02
     21.546  0.6845E+01  0.6976E+02
     21.686  0.5117E+01  0.7047E+02
     21.825  0.3583E+01  0.7097E+02
     21.964  0.2390E+01  0.7130E+02
     22.104  0.2246E+01  0.7162E+02
     22.243  0.2652E+01  0.7199E+02
     22.382  0.2150E+01  0.7229E+02
     22.522  0.2542E+01  0.7264E+02
     22.661  0.1754E+01  0.7289E+02
     22.800  0.1448E+01  0.7309E+02
     22.940  0.1993E+01  0.7336E+02
     23.079  0.1942E+01  0.7364E+02
     23.218  0.1212E+01  0.7380E+02
     23.358  0.1508E+01  0.7401E+02
     23.497  0.1447E+01  0.7422E+02
     23.636  0.2878E+01  0.7462E+02
     23.776  0.5442E+01  0.7538E+02
     23.915  0.4136E+01  0.7595E+02
     24.054  0.3329E+01  0.7642E+02
     24.194  0.2202E+01  0.7672E+02
     24.333  0.2156E+01  0.7702E+02
     24.472  0.2549E+01  0.7738E+02
     24.612  0.4138E+01  0.7795E+02
     24.751  0.3866E+01  0.7849E+02
     24.890  0.1737E+01  0.7873E+02
     25.030  0.2349E+01  0.7906E+02
     25.169  0.4818E+01  0.7973E+02
     25.308  0.4345E+01  0.8034E+02
     25.448  0.3013E+01  0.8076E+02
     25.587  0.1912E+01  0.8102E+02
     25.726  0.2302E+01  0.8135E+02
     25.866  0.2673E+01  0.8172E+02
     26.005  0.2799E+01  0.8211E+02
     26.144  0.2435E+01  0.8245E+02
     26.284  0.3228E+01  0.8290E+02
     26.423  0.2393E+01  0.8323E+02
     26.562  0.9445E+00  0.8336E+02
     26.702  0.1443E+01  0.8356E+02
     26.841  0.1694E+01  0.8380E+02
     26.980  0.1295E+01  0.8398E+02
     27.119  0.2037E+01  0.8426E+02
     27.259  0.3791E+01  0.8479E+02
     27.398  0.2859E+01  0.8519E+02
     27.537  0.1050E+01  0.8534E+02
     27.677  0.1672E+01  0.8557E+02
     27.816  0.1486E+01  0.8578E+02
     27.955  0.1864E+01  0.8604E+02
     28.095  0.2063E+01  0.8632E+02
     28.234  0.1759E+01  0.8657E+02
     28.373  0.2541E+01  0.8692E+02
     28.513  0.3657E+01  0.8743E+02
     28.652  0.4094E+01  0.8800E+02
     28.791  0.6163E+01  0.8886E+02
     28.931  0.5117E+01  0.8957E+02
     29.070  0.8691E+01  0.9079E+02
     29.209  0.7983E+01  0.9190E+02
     29.349  0.6376E+01  0.9279E+02
     29.488  0.6203E+01  0.9365E+02
     29.627  0.4444E+01  0.9427E+02
     29.767  0.4444E+01  0.9489E+02
     29.906  0.3431E+01  0.9537E+02
     30.045  0.1442E+01  0.9557E+02
     30.185  0.7040E+00  0.9567E+02
     30.324  0.6883E+00  0.9576E+02
     30.463  0.8712E+00  0.9588E+02
     30.603  0.5106E+00  0.9595E+02
     30.742  0.2894E+00  0.9599E+02
     30.881  0.3650E-01  0.9600E+02
     31.021  0.2134E-03  0.9600E+02
     31.160  0.3449E-07  0.9600E+02
     31.299  0.1306E-12  0.9600E+02
     31.439  0.0000E+00  0.9600E+02
     31.578  0.0000E+00  0.9600E+02
     31.717  0.0000E+00  0.9600E+02
     31.857  0.0000E+00  0.9600E+02
     31.996  0.0000E+00  0.9600E+02
     32.135  0.0000E+00  0.9600E+02
     32.275  0.0000E+00  0.9600E+02
     32.414  0.0000E+00  0.9600E+02
     32.553  0.0000E+00  0.9600E+02
