    8    8    1    1
  0.1050029E+02  0.4379560E-09  0.4379560E-09  0.4379560E-09  0.5000000E-15
  1.000000000000000E-004
  CAR 
 unknown system                          
     32     35     48
 
  0.0000000E+00  0.0000000E+00  0.0000000E+00  0.1953125E-02
    1       -7.345949
    2       -2.398352
    3       -2.398352
    4       -2.398352
    5        0.193307
    6        0.193307
    7        0.193307
    8        4.785288
    9        4.785288
   10        4.785288
   11        4.785288
   12        4.785288
   13        4.785288
   14        7.941466
   15        7.941466
   16        7.941466
   17        9.312162
   18        9.312162
   19        9.312162
   20       12.212428
   21       12.212428
   22       12.212428
   23       14.002096
   24       15.146892
   25       15.146892
   26       15.146892
   27       21.803705
   28       21.803705
   29       21.803705
   30       21.803705
   31       21.803705
   32       21.803705
   33       22.361984
   34       22.361984
   35       22.531505
   36       22.531505
   37       22.531505
   38       24.193646
   39       25.096725
   40       25.096725
   41       25.096725
   42       27.904737
   43       27.904737
   44       27.904737
   45       29.897544
   46       29.897544
   47       29.897547
   48       29.897553
 
  0.1250000E+00 -0.6162976E-32  0.0000000E+00  0.1171875E-01
    1       -7.245232
    2       -2.950240
    3       -2.368052
    4       -2.368052
    5        0.272530
    6        0.272530
    7        0.820471
    8        4.502124
    9        4.502124
   10        4.523518
   11        4.523518
   12        4.867666
   13        4.867666
   14        7.621117
   15        7.745009
   16        7.745009
   17        9.492956
   18        9.809298
   19        9.809298
   20       12.335282
   21       12.672560
   22       12.672560
   23       14.273821
   24       14.893181
   25       15.434054
   26       15.434054
   27       21.126734
   28       21.200958
   29       21.200958
   30       21.476548
   31       21.476548
   32       21.827551
   33       21.827551
   34       22.190322
   35       22.190322
   36       22.248005
   37       22.475733
   38       24.570344
   39       25.299699
   40       25.299699
   41       26.123611
   42       26.956161
   43       26.956161
   44       27.344100
   45       29.316880
   46       29.316880
   47       30.200205
   48       30.200536
 
  0.2500000E+00 -0.1232595E-31  0.0000000E+00  0.1171875E-01
    1       -6.944483
    2       -3.943356
    3       -2.291709
    4       -2.291709
    5        0.493453
    6        0.493453
    7        2.027336
    8        3.919279
    9        3.919279
   10        3.944155
   11        3.944155
   12        5.111384
   13        5.111384
   14        6.820317
   15        7.250822
   16        7.250822
   17       10.029112
   18       10.991164
   19       10.991164
   20       12.707644
   21       13.878262
   22       13.878262
   23       14.035939
   24       15.002870
   25       16.193001
   26       16.193001
   27       19.371730
   28       19.753593
   29       19.753593
   30       20.646037
   31       20.646037
   32       21.090719
   33       21.090719
   34       21.478342
   35       21.900579
   36       21.900579
   37       22.815908
   38       25.718242
   39       25.907848
   40       25.907848
   41       25.910839
   42       25.910839
   43       26.242665
   44       27.356266
   45       28.943578
   46       28.943578
   47       30.218002
   48       30.572560
 
  0.3750000E+00 -0.2465190E-31  0.0000000E+00  0.1171875E-01
    1       -6.448649
    2       -4.919552
    3       -2.210178
    4       -2.210178
    5        0.783728
    6        0.783728
    7        3.303178
    8        3.303178
    9        3.329494
   10        3.485247
   11        3.485247
   12        5.505267
   13        5.505267
   14        5.772564
   15        6.634117
   16        6.634117
   17       10.884389
   18       12.364017
   19       12.364017
   20       13.059641
   21       13.339799
   22       15.042452
   23       15.535114
   24       15.535114
   25       17.230016
   26       17.230016
   27       18.129695
   28       18.129695
   29       18.636115
   30       19.393306
   31       19.393306
   32       19.562262
   33       19.562262
   34       20.412056
   35       21.969000
   36       21.969000
   37       23.378683
   38       25.126816
   39       25.381855
   40       25.381855
   41       26.909604
   42       26.909604
   43       27.339528
   44       28.360318
   45       28.787592
   46       28.787592
   47       29.735686
   48       29.742772
 
  0.5000000E+00 -0.2465190E-31  0.0000000E+00  0.5859375E-02
    1       -5.767578
    2       -5.767578
    3       -2.174656
    4       -2.174656
    5        0.942934
    6        0.942934
    7        3.021507
    8        3.021507
    9        3.312958
   10        3.312958
   11        4.594021
   12        4.594021
   13        6.026789
   14        6.026789
   15        6.026789
   16        6.026789
   17       11.952475
   18       11.952475
   19       13.128859
   20       13.128859
   21       14.215394
   22       14.215394
   23       17.242350
   24       17.242350
   25       17.266727
   26       17.266727
   27       17.644404
   28       17.644404
   29       18.389014
   30       18.389014
   31       18.389014
   32       18.389014
   33       19.295489
   34       19.295489
   35       21.999082
   36       21.999082
   37       24.155450
   38       24.155450
   39       25.231111
   40       25.231111
   41       28.252250
   42       28.252250
   43       28.252250
   44       28.252250
   45       28.745483
   46       28.745483
   47       28.943665
   48       28.943665
 
  0.1250000E+00  0.1250000E+00  0.0000000E+00  0.2343750E-01
    1       -7.144889
    2       -2.897695
    3       -2.897695
    4       -2.349225
    5        0.347632
    6        0.856175
    7        0.856175
    8        3.766150
    9        4.574377
   10        4.574377
   11        4.651188
   12        4.651188
   13        4.936196
   14        7.031485
   15        7.538543
   16        7.917823
   17        9.976965
   18        9.976965
   19       10.041821
   20       12.789857
   21       12.789857
   22       13.184016
   23       14.407432
   24       15.083764
   25       15.272046
   26       15.753668
   27       20.703775
   28       20.703775
   29       20.948047
   30       21.136112
   31       21.343032
   32       21.494690
   33       21.494690
   34       21.786008
   35       21.935571
   36       22.150267
   37       22.150267
   38       24.644548
   39       25.420108
   40       25.770364
   41       26.142883
   42       26.814368
   43       26.814368
   44       27.133048
   45       29.442915
   46       29.451089
   47       29.451089
   48       30.653440
 
  0.2500000E+00  0.1250000E+00  0.0000000E+00  0.4687500E-01
    1       -6.845376
    2       -3.869346
    3       -2.753919
    4       -2.312155
    5        0.553031
    6        0.939010
    7        1.970967
    8        3.055517
    9        3.922418
   10        4.230176
   11        4.817564
   12        4.821386
   13        5.003551
   14        6.167096
   15        7.022285
   16        7.651015
   17       10.478279
   18       10.875539
   19       11.135603
   20       13.144362
   21       13.982945
   22       14.340889
   23       14.427281
   24       14.981140
   25       15.974052
   26       16.366716
   27       19.119090
   28       19.581104
   29       19.715435
   30       19.798547
   31       20.630257
   32       21.031613
   33       21.363196
   34       21.402873
   35       21.572473
   36       21.693978
   37       22.088235
   38       25.107017
   39       25.298690
   40       25.787269
   41       25.860641
   42       26.211903
   43       26.764278
   44       28.543303
   45       29.132653
   46       29.286080
   47       29.383546
   48       30.424040
 
  0.3750000E+00  0.1250000E+00  0.0000000E+00  0.4687500E-01
    1       -6.351968
    2       -4.833717
    3       -2.562374
    4       -2.309109
    5        0.810693
    6        1.003702
    7        2.645039
    8        3.129993
    9        3.223283
   10        3.973546
   11        4.412732
   12        5.214308
   13        5.219660
   14        5.567477
   15        6.382391
   16        7.037733
   17       11.290898
   18       12.136960
   19       12.470743
   20       13.410319
   21       13.742313
   22       15.233341
   23       15.622251
   24       15.923530
   25       16.762744
   26       17.049202
   27       17.439644
   28       18.271015
   29       18.609267
   30       19.087003
   31       19.461123
   32       19.494778
   33       20.056889
   34       20.822930
   35       21.477970
   36       21.582637
   37       22.931860
   38       24.655382
   39       25.030768
   40       25.175614
   41       26.310743
   42       26.650199
   43       28.203001
   44       28.710789
   45       29.036747
   46       29.130028
   47       29.274568
   48       29.694297
 
  0.5000000E+00  0.1250000E+00  0.0000000E+00  0.2343750E-01
    1       -5.674955
    2       -5.674955
    3       -2.393203
    4       -2.393203
    5        0.978788
    6        0.978788
    7        2.718671
    8        2.718671
    9        4.055273
   10        4.055273
   11        4.209716
   12        4.209716
   13        5.755554
   14        5.755554
   15        6.286221
   16        6.286221
   17       12.326052
   18       12.326052
   19       13.070409
   20       13.070409
   21       14.558781
   22       14.558781
   23       16.547425
   24       16.547425
   25       17.435637
   26       17.435637
   27       17.538198
   28       17.538198
   29       18.261774
   30       18.261774
   31       18.525445
   32       18.525445
   33       19.812431
   34       19.812431
   35       21.562893
   36       21.562893
   37       24.012229
   38       24.012229
   39       24.667075
   40       24.667075
   41       27.535525
   42       27.535525
   43       27.810668
   44       27.810668
   45       29.043465
   46       29.043465
   47       29.788273
   48       29.788273
 
  0.2500000E+00  0.2500000E+00  0.0000000E+00  0.2343750E-01
    1       -6.549976
    2       -3.655866
    3       -3.655866
    4       -2.402766
    5        0.705230
    6        1.781577
    7        1.781577
    8        2.473317
    9        4.143405
   10        4.143405
   11        4.857536
   12        4.857536
   13        5.256369
   14        5.370009
   15        6.459096
   16        7.782146
   17       11.036672
   18       11.571890
   19       11.571890
   20       14.296543
   21       14.296543
   22       14.915171
   23       15.089391
   24       15.606240
   25       15.623086
   26       16.667138
   27       18.084798
   28       18.084798
   29       19.574730
   30       19.662677
   31       20.241475
   32       20.536830
   33       20.536830
   34       20.807508
   35       21.552551
   36       21.552551
   37       21.555976
   38       23.774414
   39       25.569866
   40       25.569866
   41       25.592159
   42       26.072657
   43       27.995437
   44       29.020758
   45       29.020758
   46       29.531298
   47       30.058808
   48       30.058812
 
  0.3750000E+00  0.2500000E+00  0.0000000E+00  0.4687500E-01
    1       -6.064276
    2       -4.581315
    3       -3.331824
    4       -2.618369
    5        0.896552
    6        1.470908
    7        2.377134
    8        2.635441
    9        3.387746
   10        4.344143
   11        4.550921
   12        4.902940
   13        5.398316
   14        5.741314
   15        5.772708
   16        7.421026
   17       11.876159
   18       12.296819
   19       12.790820
   20       14.288357
   21       14.814259
   22       15.400794
   23       15.877200
   24       16.421362
   25       16.520087
   26       16.606858
   27       16.676236
   28       17.092165
   29       18.529738
   30       19.266375
   31       19.399284
   32       19.538319
   33       20.160921
   34       20.582701
   35       20.956455
   36       21.151014
   37       22.475497
   38       23.142543
   39       24.385966
   40       25.001205
   41       26.352021
   42       26.610298
   43       28.091039
   44       28.895933
   45       29.099049
   46       29.460498
   47       29.507138
   48       29.817532
 
  0.5000000E+00  0.2500000E+00  0.0000000E+00  0.2343750E-01
    1       -5.400337
    2       -5.400337
    3       -2.955669
    4       -2.955669
    5        1.144751
    6        1.144751
    7        2.743313
    8        2.743313
    9        3.474361
   10        3.474361
   11        5.109637
   12        5.109637
   13        5.141646
   14        5.141646
   15        6.674270
   16        6.674270
   17       12.946242
   18       12.946242
   19       13.257204
   20       13.257204
   21       15.463928
   22       15.463928
   23       16.206172
   24       16.206172
   25       16.303395
   26       16.303395
   27       17.596566
   28       17.596566
   29       17.887564
   30       17.887564
   31       19.325336
   32       19.325336
   33       20.063745
   34       20.063745
   35       20.820223
   36       20.820223
   37       23.441769
   38       23.441769
   39       23.811012
   40       23.811012
   41       27.204047
   42       27.204047
   43       27.614585
   44       27.614585
   45       29.276690
   46       29.276690
   47       29.948213
   48       29.948213
 
  0.3750000E+00  0.3750000E+00  0.0000000E+00  0.2343750E-01
    1       -5.593286
    2       -4.179545
    3       -4.179545
    4       -3.107460
    5        1.106394
    6        2.040737
    7        2.040737
    8        2.575317
    9        3.486662
   10        3.781843
   11        3.781843
   12        5.043960
   13        5.975895
   14        5.975895
   15        6.022549
   16        7.404350
   17       12.132433
   18       13.316877
   19       13.316877
   20       14.631092
   21       15.651492
   22       15.844479
   23       15.844479
   24       16.097281
   25       16.277384
   26       16.277384
   27       16.874467
   28       17.223560
   29       18.114988
   30       18.850271
   31       18.850271
   32       18.877880
   33       19.319661
   34       20.854710
   35       20.854710
   36       21.145892
   37       21.709837
   38       22.943705
   39       24.080631
   40       24.080631
   41       26.782740
   42       27.070359
   43       27.985875
   44       27.985875
   45       29.038940
   46       29.038940
   47       29.051266
   48       29.739053
 
  0.5000000E+00  0.3750000E+00  0.0000000E+00  0.2343750E-01
    1       -4.954788
    2       -4.954788
    3       -3.665026
    4       -3.665026
    5        1.499123
    6        1.499123
    7        2.711269
    8        2.711269
    9        3.085792
   10        3.085792
   11        4.352036
   12        4.352036
   13        6.147439
   14        6.147439
   15        6.893228
   16        6.893228
   17       12.972294
   18       12.972294
   19       13.995558
   20       13.995558
   21       15.581305
   22       15.581305
   23       16.304902
   24       16.304902
   25       16.714881
   26       16.714881
   27       17.344371
   28       17.344371
   29       17.748333
   30       17.748333
   31       18.357833
   32       18.357833
   33       19.936474
   34       19.936474
   35       20.896760
   36       20.896760
   37       22.648834
   38       22.648834
   39       23.691641
   40       23.691641
   41       27.221394
   42       27.221394
   43       28.039567
   44       28.039567
   45       28.347650
   46       28.347650
   47       29.348925
   48       29.348925
 
  0.5000000E+00  0.5000000E+00  0.0000000E+00  0.5859375E-02
    1       -4.361167
    2       -4.361167
    3       -4.361167
    4       -4.361167
    5        2.033573
    6        2.033573
    7        2.033573
    8        2.033573
    9        3.646684
   10        3.646684
   11        3.646684
   12        3.646684
   13        6.765042
   14        6.765042
   15        6.765042
   16        6.765042
   17       13.418683
   18       13.418683
   19       13.418683
   20       13.418683
   21       16.581544
   22       16.581544
   23       16.581544
   24       16.581544
   25       16.885131
   26       16.885131
   27       16.885131
   28       16.885131
   29       17.661815
   30       17.661815
   31       17.661815
   32       17.661815
   33       20.145974
   34       20.145974
   35       20.145974
   36       20.145974
   37       23.250028
   38       23.250028
   39       23.250028
   40       23.250028
   41       27.538280
   42       27.538280
   43       27.538280
   44       27.538280
   45       28.734216
   46       28.734216
   47       28.734216
   48       28.734216
 
  0.1250000E+00  0.1250000E+00  0.1250000E+00  0.1562500E-01
    1       -7.044937
    2       -2.852950
    3       -2.852950
    4       -2.852950
    5        0.873009
    6        0.873009
    7        0.873009
    8        3.921599
    9        3.921599
   10        3.921599
   11        5.016331
   12        5.016331
   13        5.016331
   14        6.461924
   15        7.741179
   16        7.741179
   17       10.206769
   18       10.206769
   19       10.206769
   20       13.295239
   21       13.295239
   22       13.295239
   23       14.271474
   24       15.495776
   25       15.495776
   26       15.645007
   27       20.689341
   28       20.689341
   29       20.689341
   30       20.757999
   31       20.757999
   32       20.757999
   33       21.158732
   34       21.158732
   35       22.122355
   36       22.122355
   37       22.122355
   38       23.879482
   39       25.822732
   40       26.321624
   41       26.321624
   42       26.321624
   43       27.270422
   44       27.270422
   45       29.408547
   46       29.408547
   47       29.408547
   48       30.479902
 
  0.2500000E+00  0.1250000E+00  0.1250000E+00  0.4687500E-01
    1       -6.746832
    2       -3.799222
    3       -2.737084
    4       -2.737084
    5        0.888848
    6        0.888848
    7        1.856717
    8        3.312316
    9        3.312316
   10        4.395369
   11        4.920947
   12        4.920947
   13        5.253003
   14        5.568469
   15        7.288878
   16        7.575931
   17       10.700608
   18       11.025648
   19       11.025648
   20       13.630161
   21       14.235901
   22       14.522023
   23       14.522023
   24       15.190258
   25       16.089209
   26       16.337955
   27       19.174319
   28       19.174319
   29       19.586247
   30       19.814476
   31       19.887905
   32       20.708895
   33       20.708895
   34       21.619908
   35       21.619908
   36       21.777381
   37       21.886844
   38       24.052317
   39       25.351179
   40       25.351179
   41       26.209682
   42       26.845230
   43       27.679554
   44       28.963683
   45       29.075631
   46       29.215036
   47       29.215036
   48       29.962082
 
  0.3750000E+00  0.1250000E+00  0.1250000E+00  0.4687500E-01
    1       -6.256036
    2       -4.749906
    3       -2.607502
    4       -2.607502
    5        0.847776
    6        0.847776
    7        2.832305
    8        3.004215
    9        3.004215
   10        4.584882
   11        4.584882
   12        4.644379
   13        5.161168
   14        5.634020
   15        6.712300
   16        6.953243
   17       11.503805
   18       12.256845
   19       12.256845
   20       13.572403
   21       14.190320
   22       15.413919
   23       15.938122
   24       15.938122
   25       16.541922
   26       16.908755
   27       17.648362
   28       17.648362
   29       18.377356
   30       18.867694
   31       19.421790
   32       20.005133
   33       20.005133
   34       21.138787
   35       21.138787
   36       21.144157
   37       22.752925
   38       24.699903
   39       24.699903
   40       24.931826
   41       25.258914
   42       27.817582
   43       28.204367
   44       28.341541
   45       29.087338
   46       29.087338
   47       29.816018
   48       30.324403
 
  0.5000000E+00  0.1250000E+00  0.1250000E+00  0.2343750E-01
    1       -5.583464
    2       -5.583464
    3       -2.548812
    4       -2.548812
    5        0.807084
    6        0.807084
    7        2.945780
    8        2.945780
    9        3.741188
   10        3.741188
   11        4.406378
   12        4.406378
   13        6.080430
   14        6.080430
   15        6.135102
   16        6.135102
   17       12.529152
   18       12.529152
   19       13.050931
   20       13.050931
   21       14.939364
   22       14.939364
   23       16.085186
   24       16.085186
   25       17.217173
   26       17.217173
   27       17.827078
   28       17.827078
   29       17.853388
   30       17.853388
   31       18.863915
   32       18.863915
   33       20.174301
   34       20.174301
   35       21.107219
   36       21.107219
   37       23.977092
   38       23.977092
   39       24.505507
   40       24.505507
   41       26.251545
   42       26.251545
   43       29.043337
   44       29.043337
   45       29.166242
   46       29.166242
   47       29.541717
   48       29.541717
 
  0.2500000E+00  0.2500000E+00  0.1250000E+00  0.4687500E-01
    1       -6.453156
    2       -3.599616
    3       -3.599616
    4       -2.719268
    5        0.729018
    6        1.513693
    7        1.513693
    8        2.952739
    9        4.011622
   10        4.011622
   11        4.639627
   12        5.232960
   13        5.232960
   14        5.442237
   15        6.928268
   16        7.662229
   17       11.189748
   18       11.477589
   19       11.477589
   20       14.219086
   21       14.801443
   22       14.801443
   23       15.626865
   24       15.681556
   25       15.729203
   26       16.762917
   27       18.141119
   28       18.141119
   29       19.220908
   30       19.388182
   31       19.729731
   32       19.729731
   33       19.954723
   34       21.420991
   35       21.433183
   36       21.760540
   37       21.760540
   38       23.866202
   39       24.313423
   40       25.654701
   41       25.654701
   42       27.652111
   43       28.688635
   44       28.688635
   45       28.724542
   46       29.220652
   47       29.550909
   48       29.550909
 
  0.3750000E+00  0.2500000E+00  0.1250000E+00  0.9375000E-01
    1       -5.970784
    2       -4.504472
    3       -3.308051
    4       -2.786714
    5        0.589863
    6        1.054126
    7        2.175965
    8        3.020937
    9        3.707617
   10        3.728637
   11        4.875900
   12        5.148748
   13        5.482766
   14        5.806881
   15        6.314626
   16        7.326107
   17       12.013321
   18       12.221783
   19       12.617711
   20       14.044363
   21       15.238449
   22       15.406142
   23       15.832779
   24       16.389193
   25       16.494341
   26       16.801843
   27       17.034235
   28       17.153111
   29       18.137030
   30       18.558389
   31       19.339386
   32       19.548752
   33       19.808247
   34       20.851578
   35       21.263021
   36       21.273865
   37       22.415426
   38       23.625649
   39       24.568490
   40       24.576115
   41       25.161981
   42       27.205637
   43       28.423743
   44       28.461034
   45       28.845476
   46       29.168917
   47       29.378089
   48       29.764069
 
  0.5000000E+00  0.2500000E+00  0.1250000E+00  0.4687500E-01
    1       -5.312782
    2       -5.312782
    3       -3.001115
    4       -3.001115
    5        0.692216
    6        0.692216
    7        2.903719
    8        2.903719
    9        3.340673
   10        3.340673
   11        5.275266
   12        5.275266
   13        5.635658
   14        5.635658
   15        6.606721
   16        6.606721
   17       13.005880
   18       13.005880
   19       13.179712
   20       13.179712
   21       15.618606
   22       15.618606
   23       15.703477
   24       15.703477
   25       16.504759
   26       16.504759
   27       17.412710
   28       17.412710
   29       18.093774
   30       18.093774
   31       19.089420
   32       19.089420
   33       20.448099
   34       20.448099
   35       20.737133
   36       20.737133
   37       23.768475
   38       23.768475
   39       23.834065
   40       23.834065
   41       25.752602
   42       25.752602
   43       28.485142
   44       28.485142
   45       28.970648
   46       28.970648
   47       29.505398
   48       29.505398
 
  0.3750000E+00  0.3750000E+00  0.1250000E+00  0.4687500E-01
    1       -5.504696
    2       -4.118503
    3       -4.118503
    4       -3.152229
    5        0.575850
    6        1.472293
    7        1.472293
    8        2.844910
    9        3.328674
   10        4.372415
   11        4.372415
   12        5.680346
   13        6.035193
   14        6.035193
   15        6.076925
   16        7.360027
   17       12.270969
   18       13.211385
   19       13.211385
   20       14.363192
   21       15.429828
   22       15.429828
   23       15.435536
   24       15.853719
   25       16.789750
   26       17.023146
   27       17.023146
   28       17.375205
   29       17.658950
   30       18.275928
   31       18.275928
   32       18.938148
   33       19.892716
   34       21.191504
   35       21.191504
   36       21.430955
   37       22.361282
   38       22.766640
   39       24.289354
   40       24.289354
   41       25.166545
   42       27.098888
   43       27.098888
   44       27.895343
   45       28.629234
   46       28.978820
   47       28.978820
   48       29.763625
 
  0.5000000E+00  0.3750000E+00  0.1250000E+00  0.4687500E-01
    1       -4.875511
    2       -4.875511
    3       -3.638128
    4       -3.638128
    5        0.898194
    6        0.898194
    7        2.079075
    8        2.079075
    9        3.812138
   10        3.812138
   11        5.015932
   12        5.015932
   13        6.199818
   14        6.199818
   15        6.883802
   16        6.883802
   17       13.078814
   18       13.078814
   19       13.941062
   20       13.941062
   21       15.179891
   22       15.179891
   23       15.741951
   24       15.741951
   25       16.753514
   26       16.753514
   27       17.455657
   28       17.455657
   29       17.673679
   30       17.673679
   31       18.439446
   32       18.439446
   33       20.467116
   34       20.467116
   35       21.304382
   36       21.304382
   37       22.936997
   38       22.936997
   39       23.597578
   40       23.597578
   41       26.123103
   42       26.123103
   43       27.264878
   44       27.264878
   45       28.692600
   46       28.692600
   47       29.373692
   48       29.373692
 
  0.5000000E+00  0.5000000E+00  0.1250000E+00  0.1171875E-01
    1       -4.298848
    2       -4.298848
    3       -4.298848
    4       -4.298848
    5        1.385983
    6        1.385983
    7        1.385983
    8        1.385983
    9        4.380633
   10        4.380633
   11        4.380633
   12        4.380633
   13        6.783102
   14        6.783102
   15        6.783102
   16        6.783102
   17       13.511402
   18       13.511402
   19       13.511402
   20       13.511402
   21       15.883826
   22       15.883826
   23       15.883826
   24       15.883826
   25       16.481622
   26       16.481622
   27       16.481622
   28       16.481622
   29       18.232040
   30       18.232040
   31       18.232040
   32       18.232040
   33       20.808530
   34       20.808530
   35       20.808530
   36       20.808530
   37       23.235842
   38       23.235842
   39       23.235842
   40       23.235842
   41       26.567270
   42       26.567270
   43       26.567270
   44       26.567270
   45       28.846161
   46       28.846161
   47       28.846161
   48       28.846161
 
  0.2500000E+00  0.2500000E+00  0.2500000E+00  0.1562500E-01
    1       -6.165040
    2       -3.450490
    3       -3.450490
    4       -3.450490
    5        0.928846
    6        0.928846
    7        0.928846
    8        3.676104
    9        4.019957
   10        4.019957
   11        4.019957
   12        5.654011
   13        5.654011
   14        5.654011
   15        7.337688
   16        7.337688
   17       11.647660
   18       11.647660
   19       11.647660
   20       13.800293
   21       15.757859
   22       15.757859
   23       15.820805
   24       15.820805
   25       15.820805
   26       17.163287
   27       18.286983
   28       18.286983
   29       18.286983
   30       18.327157
   31       18.327157
   32       18.327157
   33       20.979784
   34       20.979784
   35       21.748413
   36       21.748413
   37       21.748413
   38       22.954432
   39       25.330427
   40       25.330427
   41       25.330427
   42       27.963851
   43       27.963851
   44       27.963851
   45       28.717721
   46       29.649544
   47       29.649544
   48       29.649545
 
  0.3750000E+00  0.2500000E+00  0.2500000E+00  0.4687500E-01
    1       -5.693594
    2       -4.283906
    3       -3.276145
    4       -3.276145
    5        0.396171
    6        0.396171
    7        1.352685
    8        2.760021
    9        4.166860
   10        4.166860
   11        5.241653
   12        5.742804
   13        5.742804
   14        5.989562
   15        6.892656
   16        7.136641
   17       12.387671
   18       12.422674
   19       12.422674
   20       13.758155
   21       15.314140
   22       15.843069
   23       15.926765
   24       15.926765
   25       16.091256
   26       17.388653
   27       17.418141
   28       17.439344
   29       17.701788