 vasp.5.3.5 31Mar14 (build Oct 01 2015 16:19:09) complex                        
  
 executed on             LinuxIFC date 2023.05.07  19:50:37
 running on   48 total cores
 distrk:  each k-point on   48 cores,    1 groups
 distr:  one band on NCORES_PER_BAND=   1 cores,   48 groups


--------------------------------------------------------------------------------------------------------


 INCAR:
 POTCAR:    PAW_PBE Si 05Jan2001                  
 POTCAR:    PAW_PBE C 08Apr2002                   

 ----------------------------------------------------------------------------- 
|                                                                             |
|           W    W    AA    RRRRR   N    N  II  N    N   GGGG   !!!           |
|           W    W   A  A   R    R  NN   N  II  NN   N  G    G  !!!           |
|           W    W  A    A  R    R  N N  N  II  N N  N  G       !!!           |
|           W WW W  AAAAAA  RRRRR   N  N N  II  N  N N  G  GGG   !            |
|           WW  WW  A    A  R   R   N   NN  II  N   NN  G    G                |
|           W    W  A    A  R    R  N    N  II  N    N   GGGG   !!!           |
|                                                                             |
|      For optimal performance we recommend to set                            |
|        NCORE= 4 - approx SQRT( number of cores)                             |
|      NCORE specifies how many cores store one orbital (NPAR=cpu/NCORE).     |
|      This setting can  greatly improve the performance of VASP for DFT.     |
|      The default, NPAR=number of cores might be grossly inefficient         |
|      on modern multi-core architectures or massively parallel machines.     |
|      Do your own testing !!!!                                               |
|      Unfortunately you need to use the default for GW and RPA calculations. |
|      (for HF NCORE is supported but not extensively tested yet)             |
|                                                                             |
 ----------------------------------------------------------------------------- 

 POTCAR:    PAW_PBE Si 05Jan2001                  
   VRHFIN =Si: s2p2                                                             
   LEXCH  = PE                                                                  
   EATOM  =   103.0669 eV,    7.5752 Ry                                         
                                                                                
   TITEL  = PAW_PBE Si 05Jan2001                                                
   LULTRA =        F    use ultrasoft PP ?                                      
   IUNSCR =        1    unscreen: 0-lin 1-nonlin 2-no                           
   RPACOR =    1.500    partial core radius                                     
   POMASS =   28.085; ZVAL   =    4.000    mass and valenz                      
   RCORE  =    1.900    outmost cutoff radius                                   
   RWIGS  =    2.480; RWIGS  =    1.312    wigner-seitz radius (au A)           
   ENMAX  =  245.345; ENMIN  =  184.009 eV                                      
   ICORE  =        2    local potential                                         
   LCOR   =        T    correct aug charges                                     
   LPAW   =        T    paw PP                                                  
   EAUG   =  322.069                                                            
   DEXC   =    0.000                                                            
   RMAX   =    1.950    core radius for proj-oper                               
   RAUG   =    1.300    factor for augmentation sphere                          
   RDEP   =    1.993    radius for radial grids                                 
   RDEPT  =    1.837    core radius for aug-charge                              
                                                                                
   Atomic configuration                                                         
    6 entries                                                                   
     n  l   j            E        occ.                                          
     1  0  0.50     -1785.8828   2.0000                                         
     2  0  0.50      -139.4969   2.0000                                         
     2  1  1.50       -95.5546   6.0000                                         
     3  0  0.50       -10.8127   2.0000                                         
     3  1  0.50        -4.0811   2.0000                                         
     3  2  1.50        -4.0817   0.0000                                         
   Description                                                                  
     l       E           TYP  RCUT    TYP  RCUT                                 
     0    -10.8127223     23  1.900                                             
     0     -7.6451159     23  1.900                                             
     1     -4.0811372     23  1.900                                             
     1      2.4879257     23  1.900                                             
     2     -4.0817478      7  1.900                                             
  local pseudopotential read in
  partial core-charges read in
  partial kinetic energy density read in
  atomic valenz-charges read in
  non local Contribution for L=           0  read in
    real space projection operators read in
  non local Contribution for L=           0  read in
    real space projection operators read in
  non local Contribution for L=           1  read in
    real space projection operators read in
  non local Contribution for L=           1  read in
    real space projection operators read in
    PAW grid and wavefunctions read in
 
   number of l-projection  operators is LMAX  =           4
   number of lm-projection operators is LMMAX =           8
 
 POTCAR:    PAW_PBE C 08Apr2002                   
   VRHFIN =C: s2p2                                                              
   LEXCH  = PE                                                                  
   EATOM  =   147.1560 eV,   10.8157 Ry                                         
                                                                                
   TITEL  = PAW_PBE C 08Apr2002                                                 
   LULTRA =        F    use ultrasoft PP ?                                      
   IUNSCR =        1    unscreen: 0-lin 1-nonlin 2-no                           
   RPACOR =    1.200    partial core radius                                     
   POMASS =   12.011; ZVAL   =    4.000    mass and valenz                      
   RCORE  =    1.500    outmost cutoff radius                                   
   RWIGS  =    1.630; RWIGS  =    0.863    wigner-seitz radius (au A)           
   ENMAX  =  400.000; ENMIN  =  300.000 eV                                      
   ICORE  =        2    local potential                                         
   LCOR   =        T    correct aug charges                                     
   LPAW   =        T    paw PP                                                  
   EAUG   =  644.873                                                            
   DEXC   =    0.000                                                            
   RMAX   =    1.529    core radius for proj-oper                               
   RAUG   =    1.300    factor for augmentation sphere                          
   RDEP   =    1.501    radius for radial grids                                 
   RDEPT  =    1.300    core radius for aug-charge                              
                                                                                
   Atomic configuration                                                         
    4 entries                                                                   
     n  l   j            E        occ.                                          
     1  0  0.50      -273.3789   2.0000                                         
     2  0  0.50       -13.7508   2.0000                                         
     2  1  0.50        -5.2854   2.0000                                         
     3  2  1.50        -5.4423   0.0000                                         
   Description                                                                  
     l       E           TYP  RCUT    TYP  RCUT                                 
     0    -13.7508458     23  1.200                                             
     0     -8.2022199     23  1.200                                             
     1     -5.2854383     23  1.500                                             
     1     34.0145650     23  1.500                                             
     2     -5.4423304      7  1.500                                             
  local pseudopotential read in
  partial core-charges read in
  partial kinetic energy density read in
  atomic valenz-charges read in
  non local Contribution for L=           0  read in
    real space projection operators read in
  non local Contribution for L=           0  read in
    real space projection operators read in
  non local Contribution for L=           1  read in
    real space projection operators read in
  non local Contribution for L=           1  read in
    real space projection operators read in
    PAW grid and wavefunctions read in
 
   number of l-projection  operators is LMAX  =           4
   number of lm-projection operators is LMMAX =           8
 
  PAW_PBE Si 05Jan2001                  :
 energy of atom  1       EATOM= -103.0669
 kinetic energy error for atom=    0.0005 (will be added to EATOM!!)
  PAW_PBE C 08Apr2002                   :
 energy of atom  2       EATOM= -147.1560
 kinetic energy error for atom=    0.0071 (will be added to EATOM!!)
 
 
 POSCAR: Si4 C4                                  
  positions in direct lattice
  velocities in cartesian coordinates
 exchange correlation table for  LEXCH =        8
   RHO(1)=    0.500       N(1)  =     2000
   RHO(2)=  100.500       N(2)  =     4000
 


--------------------------------------------------------------------------------------------------------


 ion  position               nearest neighbor table
   1  0.250  0.250  0.750-   5 1.90   6 1.90   7 1.90   8 1.90   4 3.10   4 3.10   2 3.10   2 3.10
                             3 3.10   2 3.10   3 3.10   2 3.10   3 3.10   4 3.10   3 3.10   4 3.10
   2  0.250  0.750  0.250-   5 1.90   6 1.90   8 1.90   7 1.90   3 3.10   3 3.10   1 3.10   1 3.10
                             4 3.10   1 3.10   3 3.10   1 3.10   4 3.10   4 3.10   4 3.10   3 3.10
   3  0.750  0.250  0.250-   5 1.90   7 1.90   8 1.90   6 1.90   2 3.10   2 3.10   1 3.10   1 3.10
                             4 3.10   2 3.10   4 3.10   4 3.10   1 3.10   4 3.10   1 3.10   2 3.10
   4  0.750  0.750  0.750-   6 1.90   7 1.90   8 1.90   5 1.90   1 3.10   1 3.10   1 3.10   2 3.10
                             3 3.10   2 3.10   3 3.10   3 3.10   3 3.10   2 3.10   2 3.10   1 3.10
   5  0.000  0.000  0.000-   1 1.90   2 1.90   3 1.90   4 1.90
   6  0.000  0.500  0.500-   1 1.90   2 1.90   4 1.90   3 1.90
   7  0.500  0.000  0.500-   1 1.90   3 1.90   4 1.90   2 1.90
   8  0.500  0.500  0.000-   2 1.90   3 1.90   4 1.90   1 1.90
 
  LATTYP: Found a simple cubic cell.
 ALAT       =     4.3795600000
  
  Lattice vectors:
  
 A1 = (   4.3795600000,   0.0000000000,   0.0000000000)
 A2 = (   0.0000000000,   4.3795600000,   0.0000000000)
 A3 = (   0.0000000000,   0.0000000000,   4.3795600000)


Analysis of symmetry for initial positions (statically):
=====================================================================
 Subroutine PRICEL returns following result:
 
  LATTYP: Found a face centered cubic cell.
 ALAT       =     4.3795600000
  
  Lattice vectors:
  
 A1 = (   2.1897800000,   2.1897800000,   0.0000000000)
 A2 = (   2.1897800000,   0.0000000000,  -2.1897800000)
 A3 = (   0.0000000000,   2.1897800000,  -2.1897800000)
 
   4 primitive cells build up your supercell.
 

 Routine SETGRP: Setting up the symmetry group for a 
 simple cubic supercell.


 Subroutine GETGRP returns: Found 24 space group operations
 (whereof 24 operations were pure point group operations)
 out of a pool of 48 trial point group operations.


The static configuration has the point symmetry T_d .


Analysis of symmetry for dynamics (positions and initial velocities):
=====================================================================
 Subroutine PRICEL returns following result:
 
  LATTYP: Found a face centered cubic cell.
 ALAT       =     4.3795600000
  
  Lattice vectors:
  
 A1 = (   2.1897800000,   2.1897800000,   0.0000000000)
 A2 = (   2.1897800000,   0.0000000000,  -2.1897800000)
 A3 = (   0.0000000000,   2.1897800000,  -2.1897800000)
 
   4 primitive cells build up your supercell.
 

 Routine SETGRP: Setting up the symmetry group for a 
 simple cubic supercell.


 Subroutine GETGRP returns: Found 24 space group operations
 (whereof 24 operations were pure point group operations)
 out of a pool of 48 trial point group operations.


The dynamic configuration has the point symmetry T_d .
 
 
 KPOINTS: Automatic mesh                          

Automatic generation of k-mesh.
Space group operators:
 irot       det(A)        alpha          n_x          n_y          n_z        tau_x        tau_y        tau_z
    1     1.000000     0.000000     1.000000     0.000000     0.000000     0.000000     0.000000     0.000000
    2     1.000000   120.000000    -0.577350    -0.577350    -0.577350     0.000000     0.000000     0.000000
    3     1.000000   120.000000     0.577350     0.577350     0.577350     0.000000     0.000000     0.000000
    4    -1.000000    90.000000     0.000000     0.000000    -1.000000     0.000000     0.000000     0.000000
    5    -1.000000   180.000000     0.000000    -0.707107    -0.707107     0.000000     0.000000     0.000000
    6    -1.000000    90.000000     0.000000     1.000000     0.000000     0.000000     0.000000     0.000000
    7     1.000000   179.999999    -0.000000    -0.000000     1.000000     0.000000     0.000000     0.000000
    8     1.000000   120.000000    -0.577350     0.577350     0.577350     0.000000     0.000000     0.000000
    9     1.000000   120.000000    -0.577350     0.577350    -0.577350     0.000000     0.000000     0.000000
   10    -1.000000    90.000000    -0.000000    -0.000000     1.000000     0.000000     0.000000     0.000000
   11    -1.000000    90.000000    -1.000000     0.000000    -0.000000     0.000000     0.000000     0.000000
   12    -1.000000   180.000000    -0.707107     0.000000    -0.707107     0.000000     0.000000     0.000000
   13     1.000000   120.000000     0.577350    -0.577350     0.577350     0.000000     0.000000     0.000000
   14     1.000000   120.000000    -0.577350    -0.577350     0.577350     0.000000     0.000000     0.000000
   15     1.000000   180.000000     1.000000    -0.000000     0.000000     0.000000     0.000000     0.000000
   16    -1.000000    90.000000    -0.000000    -1.000000     0.000000     0.000000     0.000000     0.000000
   17    -1.000000   180.000000     0.707107     0.707107     0.000000     0.000000     0.000000     0.000000
   18    -1.000000    90.000000     1.000000    -0.000000    -0.000000     0.000000     0.000000     0.000000
   19     1.000000   120.000000     0.577350    -0.577350    -0.577350     0.000000     0.000000     0.000000
   20     1.000000   180.000000     0.000000     1.000000     0.000000     0.000000     0.000000     0.000000
   21     1.000000   120.000000     0.577350     0.577350    -0.577350     0.000000     0.000000     0.000000
   22    -1.000000   180.000000    -0.000000    -0.707107     0.707107     0.000000     0.000000     0.000000
   23    -1.000000   180.000000     0.707107    -0.707107     0.000000     0.000000     0.000000     0.000000
   24    -1.000000   180.000000     0.707107    -0.000000    -0.707107     0.000000     0.000000     0.000000
 
 Subroutine IBZKPT returns following result:
 ===========================================
 
 Found     35 irreducible k-points:
 
 Following reciprocal coordinates:
            Coordinates               Weight
  0.000000  0.000000  0.000000      1.000000
  0.125000 -0.000000  0.000000      6.000000
  0.250000 -0.000000  0.000000      6.000000
  0.375000 -0.000000  0.000000      6.000000
  0.500000 -0.000000  0.000000      3.000000
  0.125000  0.125000  0.000000     12.000000
  0.250000  0.125000  0.000000     24.000000
  0.375000  0.125000  0.000000     24.000000
  0.500000  0.125000  0.000000     12.000000
  0.250000  0.250000  0.000000     12.000000
  0.375000  0.250000  0.000000     24.000000
  0.500000  0.250000  0.000000     12.000000
  0.375000  0.375000  0.000000     12.000000
  0.500000  0.375000  0.000000     12.000000
  0.500000  0.500000  0.000000      3.000000
  0.125000  0.125000  0.125000      8.000000
  0.250000  0.125000  0.125000     24.000000
  0.375000  0.125000  0.125000     24.000000
  0.500000  0.125000  0.125000     12.000000
  0.250000  0.250000  0.125000     24.000000
  0.375000  0.250000  0.125000     48.000000
  0.500000  0.250000  0.125000     24.000000
  0.375000  0.375000  0.125000     24.000000
  0.500000  0.375000  0.125000     24.000000
  0.500000  0.500000  0.125000      6.000000
  0.250000  0.250000  0.250000      8.000000
  0.375000  0.250000  0.250000     24.000000
  0.500000  0.250000  0.250000     12.000000
  0.375000  0.375000  0.250000     24.000000
  0.500000  0.375000  0.250000     24.000000
  0.500000  0.500000  0.250000      6.000000
  0.375000  0.375000  0.375000      8.000000
  0.500000  0.375000  0.375000     12.000000
  0.500000  0.500000  0.375000      6.000000
  0.500000  0.500000  0.500000      1.000000
 
 Following cartesian coordinates:
            Coordinates               Weight
  0.000000  0.000000  0.000000      1.000000
  0.028542 -0.000000  0.000000      6.000000
  0.057083 -0.000000  0.000000      6.000000
  0.085625 -0.000000  0.000000      6.000000
  0.114167 -0.000000  0.000000      3.000000
  0.028542  0.028542  0.000000     12.000000
  0.057083  0.028542  0.000000     24.000000
  0.085625  0.028542  0.000000     24.000000
  0.114167  0.028542  0.000000     12.000000
  0.057083  0.057083  0.000000     12.000000
  0.085625  0.057083  0.000000     24.000000
  0.114167  0.057083  0.000000     12.000000
  0.085625  0.085625  0.000000     12.000000
  0.114167  0.085625  0.000000     12.000000
  0.114167  0.114167  0.000000      3.000000
  0.028542  0.028542  0.028542      8.000000
  0.057083  0.028542  0.028542     24.000000
  0.085625  0.028542  0.028542     24.000000
  0.114167  0.028542  0.028542     12.000000
  0.057083  0.057083  0.028542     24.000000
  0.085625  0.057083  0.028542     48.000000
  0.114167  0.057083  0.028542     24.000000
  0.085625  0.085625  0.028542     24.000000
  0.114167  0.085625  0.028542     24.000000
  0.114167  0.114167  0.028542      6.000000
  0.057083  0.057083  0.057083      8.000000
  0.085625  0.057083  0.057083     24.000000
  0.114167  0.057083  0.057083     12.000000
  0.085625  0.085625  0.057083     24.000000
  0.114167  0.085625  0.057083     24.000000
  0.114167  0.114167  0.057083      6.000000
  0.085625  0.085625  0.085625      8.000000
  0.114167  0.085625  0.085625     12.000000
  0.114167  0.114167  0.085625      6.000000
  0.114167  0.114167  0.114167      1.000000
 


--------------------------------------------------------------------------------------------------------




 Dimension of arrays:
   k-points           NKPTS =     35   k-points in BZ     NKDIM =     35   number of bands    NBANDS=     48
   number of dos      NEDOS =    301   number of ions     NIONS =      8
   non local maximal  LDIM  =      4   non local SUM 2l+1 LMDIM =      8
   total plane-waves  NPLWV =  46656
   max r-space proj   IRMAX =      1   max aug-charges    IRDMAX= 148744
   dimension x,y,z NGX =    36 NGY =   36 NGZ =   36
   dimension x,y,z NGXF=    72 NGYF=   72 NGZF=   72
   support grid    NGXF=   144 NGYF=  144 NGZF=  144
   ions per type =               4   4
 NGX,Y,Z   is equivalent  to a cutoff of  13.67, 13.67, 13.67 a.u.
 NGXF,Y,Z  is equivalent  to a cutoff of  27.33, 27.33, 27.33 a.u.


 I would recommend the setting:
   dimension x,y,z NGX =    33 NGY =   33 NGZ =   33
 SYSTEM =  unknown system                          
 POSCAR =  Si4 C4                                  

 Startparameter for this run:
   NWRITE =      2    write-flag & timer
   PREC   = accura    normal or accurate (medium, high low for compatibility)
   ISTART =      0    job   : 0-new  1-cont  2-samecut
   ICHARG =      2    charge: 1-file 2-atom 10-const
   ISPIN  =      1    spin polarized calculation?
   LNONCOLLINEAR =      F non collinear calculations
   LSORBIT =      F    spin-orbit coupling
   INIWAV =      1    electr: 0-lowe 1-rand  2-diag
   LASPH  =      F    aspherical Exc in radial PAW
   METAGGA=      F    non-selfconsistent MetaGGA calc.

 Electronic Relaxation 1
   ENCUT  =  520.0 eV  38.22 Ry    6.18 a.u.   8.14  8.14  8.14*2*pi/ulx,y,z
   ENINI  =  520.0     initial cutoff
   ENAUG  =  644.9 eV  augmentation charge cutoff
   NELM   =     60;   NELMIN=  2; NELMDL= -5     # of ELM steps 
   EDIFF  = 0.1E-05   stopping-criterion for ELM
   LREAL  =      F    real-space projection
   NLSPLINE    = F    spline interpolate recip. space projectors
   LCOMPAT=      F    compatible to vasp.4.4
   GGA_COMPAT  = T    GGA compatible to vasp.4.4-vasp.4.6
   LMAXPAW     = -100 max onsite density
   LMAXMIX     =    2 max onsite mixed and CHGCAR
   VOSKOWN=      0    Vosko Wilk Nusair interpolation
   ROPT   =    0.00000   0.00000
 Ionic relaxation
   EDIFFG = -.2E-01   stopping-criterion for IOM
   NSW    =      0    number of steps for IOM
   NBLOCK =      1;   KBLOCK =      1    inner block; outer block 
   IBRION =     -1    ionic relax: 0-MD 1-quasi-New 2-CG
   NFREE  =      0    steps in history (QN), initial steepest desc. (CG)
   ISIF   =      2    stress and relaxation
   IWAVPR =     10    prediction:  0-non 1-charg 2-wave 3-comb
   ISYM   =      2    0-nonsym 1-usesym 2-fastsym
   LCORR  =      T    Harris-Foulkes like correction to forces

   POTIM  = 0.5000    time-step for ionic-motion
   TEIN   =    0.0    initial temperature
   TEBEG  =    0.0;   TEEND  =   0.0 temperature during run
   SMASS  =  -3.00    Nose mass-parameter (am)
   estimated Nose-frequenzy (Omega)   =  0.10E-29 period in steps =****** mass=  -0.438E-27a.u.
   SCALEE = 1.0000    scale energy and forces
   NPACO  =    256;   APACO  = 16.0  distance and # of slots for P.C.
   PSTRESS=    0.0 pullay stress

  Mass of Ions in am
   POMASS =  28.09 12.01
  Ionic Valenz
   ZVAL   =   4.00  4.00
  Atomic Wigner-Seitz radii
   RWIGS  =  -1.00 -1.00
  virtual crystal weights 
   VCA    =   1.00  1.00
   NELECT =      32.0000    total number of electrons
   NUPDOWN=      -1.0000    fix difference up-down

 DOS related values:
   EMIN   =  10.00;   EMAX   =-10.00  energy-range for DOS
   EFERMI =   0.00
   ISMEAR =     0;   SIGMA  =   0.10  broadening in eV -4-tet -1-fermi 0-gaus

 Electronic relaxation 2 (details)
   IALGO  =     38    algorithm
   LDIAG  =      T    sub-space diagonalisation (order eigenvalues)
   LSUBROT=      F    optimize rotation matrix (better conditioning)
   TURBO    =      0    0=normal 1=particle mesh
   IRESTART =      0    0=no restart 2=restart with 2 vectors
   NREBOOT  =      0    no. of reboots
   NMIN     =      0    reboot dimension
   EREF     =   0.00    reference energy to select bands
   IMIX   =      4    mixing-type and parameters
     AMIX     =   0.40;   BMIX     =  1.00
     AMIX_MAG =   1.60;   BMIX_MAG =  1.00
     AMIN     =   0.10
     WC   =   100.;   INIMIX=   1;  MIXPRE=   1;  MAXMIX= -45

 Intra band minimization:
   WEIMIN = 0.0000     energy-eigenvalue tresh-hold
   EBREAK =  0.52E-08  absolut break condition
   DEPER  =   0.30     relativ break condition  

   TIME   =   0.40     timestep for ELM

  volume/ion in A,a.u.               =      10.50        70.86
  Fermi-wavevector in a.u.,A,eV,Ry     =   1.186755  2.242641 19.162269  1.408387
  Thomas-Fermi vector in A             =   2.322921
 
 Write flags
   LWAVE  =      T    write WAVECAR
   LCHARG =      T    write CHGCAR
   LVTOT  =      F    write LOCPOT, total local potential
   LVHAR  =      F    write LOCPOT, Hartree potential only
   LELF   =      F    write electronic localiz. function (ELF)
   LORBIT =      0    0 simple, 1 ext, 2 COOP (PROOUT)


 Dipole corrections
   LMONO  =      F    monopole corrections only (constant potential shift)
   LDIPOL =      F    correct potential (dipole corrections)
   IDIPOL =      0    1-x, 2-y, 3-z, 4-all directions 
   EPSILON=  1.0000000 bulk dielectric constant

 Exchange correlation treatment:
   GGA     =    --    GGA type
   LEXCH   =     8    internal setting for exchange type
   VOSKOWN=      0    Vosko Wilk Nusair interpolation
   LHFCALC =     F    Hartree Fock is set to
   LHFONE  =     F    Hartree Fock one center treatment
   AEXX    =    0.0000 exact exchange contribution

 Linear response parameters
   LEPSILON=     F    determine dielectric tensor
   LRPA    =     F    only Hartree local field effects (RPA)
   LNABLA  =     F    use nabla operator in PAW spheres
   LVEL    =     F    velocity operator in full k-point grid
   LINTERFAST=   F  fast interpolation
   KINTER  =     0    interpolate to denser k-point grid
   CSHIFT  =0.1000    complex shift for real part using Kramers Kronig
   OMEGAMAX=  -1.0    maximum frequency
   DEG_THRESHOLD= 0.2000000E-02 threshold for treating states as degnerate
   RTIME   =    0.100 relaxation time in fs

 Orbital magnetization related:
   ORBITALMAG=     F  switch on orbital magnetization
   LCHIMAG   =     F  perturbation theory with respect to B field
   DQ        =  0.001000  dq finite difference perturbation B field



--------------------------------------------------------------------------------------------------------


 Static calculation
 charge density and potential will be updated during run
 non-spin polarized calculation
 Variant of blocked Davidson
 Davidson routine will perform the subspace rotation
 perform sub-space diagonalisation
    after iterative eigenvector-optimisation
 modified Broyden-mixing scheme, WC =      100.0
 initial mixing is a Kerker type mixing with AMIX =  0.4000 and BMIX =      1.0000
 Hartree-type preconditioning will be used
 using additional bands           32
 reciprocal scheme for non local part
 use partial core corrections
 calculate Harris-corrections to forces 
   (improved forces if not selfconsistent)
 use gradient corrections 
 use of overlap-Matrix (Vanderbilt PP)
 Gauss-broadening in eV      SIGMA  =   0.10


--------------------------------------------------------------------------------------------------------


  energy-cutoff  :      520.00
  volume of cell :       84.00
      direct lattice vectors                 reciprocal lattice vectors
     4.379560000  0.000000000  0.000000000     0.228333440 -0.000000000  0.000000000
     0.000000000  4.379560000  0.000000000     0.000000000  0.228333440  0.000000000
     0.000000000  0.000000000  4.379560000    -0.000000000 -0.000000000  0.228333440

  length of vectors
     4.379560000  4.379560000  4.379560000     0.228333440  0.228333440  0.228333440


 
 k-points in units of 2pi/SCALE and weight: Automatic mesh                          
   0.00000000  0.00000000  0.00000000       0.002
   0.02854168 -0.00000000  0.00000000       0.012
   0.05708336 -0.00000000  0.00000000       0.012
   0.08562504 -0.00000000  0.00000000       0.012
   0.11416672 -0.00000000  0.00000000       0.006
   0.02854168  0.02854168  0.00000000       0.023
   0.05708336  0.02854168  0.00000000       0.047
   0.08562504  0.02854168  0.00000000       0.047
   0.11416672  0.02854168  0.00000000       0.023
   0.05708336  0.05708336  0.00000000       0.023
   0.08562504  0.05708336  0.00000000       0.047
   0.11416672  0.05708336  0.00000000       0.023
   0.08562504  0.08562504  0.00000000       0.023
   0.11416672  0.08562504  0.00000000       0.023
   0.11416672  0.11416672  0.00000000       0.006
   0.02854168  0.02854168  0.02854168       0.016
   0.05708336  0.02854168  0.02854168       0.047
   0.08562504  0.02854168  0.02854168       0.047
   0.11416672  0.02854168  0.02854168       0.023
   0.05708336  0.05708336  0.02854168       0.047
   0.08562504  0.05708336  0.02854168       0.094
   0.11416672  0.05708336  0.02854168       0.047
   0.08562504  0.08562504  0.02854168       0.047
   0.11416672  0.08562504  0.02854168       0.047
   0.11416672  0.11416672  0.02854168       0.012
   0.05708336  0.05708336  0.05708336       0.016
   0.08562504  0.05708336  0.05708336       0.047
   0.11416672  0.05708336  0.05708336       0.023
   0.08562504  0.08562504  0.05708336       0.047
   0.11416672  0.08562504  0.05708336       0.047
   0.11416672  0.11416672  0.05708336       0.012
   0.08562504  0.08562504  0.08562504       0.016
   0.11416672  0.08562504  0.08562504       0.023
   0.11416672  0.11416672  0.08562504       0.012
   0.11416672  0.11416672  0.11416672       0.002
 
 k-points in reciprocal lattice and weights: Automatic mesh                          
   0.00000000  0.00000000  0.00000000       0.002
   0.12500000 -0.00000000  0.00000000       0.012
   0.25000000 -0.00000000  0.00000000       0.012
   0.37500000 -0.00000000  0.00000000       0.012
   0.50000000 -0.00000000  0.00000000       0.006
   0.12500000  0.12500000  0.00000000       0.023
   0.25000000  0.12500000  0.00000000       0.047
   0.37500000  0.12500000  0.00000000       0.047
   0.50000000  0.12500000  0.00000000       0.023
   0.25000000  0.25000000  0.00000000       0.023
   0.37500000  0.25000000  0.00000000       0.047
   0.50000000  0.25000000  0.00000000       0.023
   0.37500000  0.37500000  0.00000000       0.023
   0.50000000  0.37500000  0.00000000       0.023
   0.50000000  0.50000000  0.00000000       0.006
   0.12500000  0.12500000  0.12500000       0.016
   0.25000000  0.12500000  0.12500000       0.047
   0.37500000  0.12500000  0.12500000       0.047
   0.50000000  0.12500000  0.12500000       0.023
   0.25000000  0.25000000  0.12500000       0.047
   0.37500000  0.25000000  0.12500000       0.094
   0.50000000  0.25000000  0.12500000       0.047
   0.37500000  0.37500000  0.12500000       0.047
   0.50000000  0.37500000  0.12500000       0.047
   0.50000000  0.50000000  0.12500000       0.012
   0.25000000  0.25000000  0.25000000       0.016
   0.37500000  0.25000000  0.25000000       0.047
   0.50000000  0.25000000  0.25000000       0.023
   0.37500000  0.37500000  0.25000000       0.047
   0.50000000  0.37500000  0.25000000       0.047
   0.50000000  0.50000000  0.25000000       0.012
   0.37500000  0.37500000  0.37500000       0.016
   0.50000000  0.37500000  0.37500000       0.023
   0.50000000  0.50000000  0.37500000       0.012
   0.50000000  0.50000000  0.50000000       0.002
 
 position of ions in fractional coordinates (direct lattice) 
   0.25000000  0.25000000  0.75000000
   0.25000000  0.75000000  0.25000000
   0.75000000  0.25000000  0.25000000
   0.75000000  0.75000000  0.75000000
   0.00000000  0.00000000  0.00000000
   0.00000000  0.50000000  0.50000000
   0.50000000  0.00000000  0.50000000
   0.50000000  0.50000000  0.00000000
 
 position of ions in cartesian coordinates  (Angst):
   1.09489000  1.09489000  3.28467000
   1.09489000  3.28467000  1.09489000
   3.28467000  1.09489000  1.09489000
   3.28467000  3.28467000  3.28467000
   0.00000000  0.00000000  0.00000000
   0.00000000  2.18978000  2.18978000
   2.18978000  0.00000000  2.18978000
   2.18978000  2.18978000  0.00000000
 


--------------------------------------------------------------------------------------------------------


 k-point  1 :   0.0000 0.0000 0.0000  plane waves:    2301
 k-point  2 :   0.1250-0.0000 0.0000  plane waves:    2269
 k-point  3 :   0.2500-0.0000 0.0000  plane waves:    2268
 k-point  4 :   0.3750-0.0000 0.0000  plane waves:    2264
 k-point  5 :   0.5000-0.0000 0.0000  plane waves:    2272
 k-point  6 :   0.1250 0.1250 0.0000  plane waves:    2261
 k-point  7 :   0.2500 0.1250 0.0000  plane waves:    2258
 k-point  8 :   0.3750 0.1250 0.0000  plane waves:    2254
 k-point  9 :   0.5000 0.1250 0.0000  plane waves:    2278
 k-point 10 :   0.2500 0.2500 0.0000  plane waves:    2266
 k-point 11 :   0.3750 0.2500 0.0000  plane waves:    2258
 k-point 12 :   0.5000 0.2500 0.0000  plane waves:    2244
 k-point 13 :   0.3750 0.3750 0.0000  plane waves:    2266
 k-point 14 :   0.5000 0.3750 0.0000  plane waves:    2252
 k-point 15 :   0.5000 0.5000 0.0000  plane waves:    2216
 k-point 16 :   0.1250 0.1250 0.1250  plane waves:    2253
 k-point 17 :   0.2500 0.1250 0.1250  plane waves:    2263
 k-point 18 :   0.3750 0.1250 0.1250  plane waves:    2257
 k-point 19 :   0.5000 0.1250 0.1250  plane waves:    2260
 k-point 20 :   0.2500 0.2500 0.1250  plane waves:    2258
 k-point 21 :   0.3750 0.2500 0.1250  plane waves:    2254
 k-point 22 :   0.5000 0.2500 0.1250  plane waves:    2256
 k-point 23 :   0.3750 0.3750 0.1250  plane waves:    2257
 k-point 24 :   0.5000 0.3750 0.1250  plane waves:    2256
 k-point 25 :   0.5000 0.5000 0.1250  plane waves:    2272
 k-point 26 :   0.2500 0.2500 0.2500  plane waves:    2256
 k-point 27 :   0.3750 0.2500 0.2500  plane waves:    2270
 k-point 28 :   0.5000 0.2500 0.2500  plane waves:    2248
 k-point 29 :   0.3750 0.3750 0.2500  plane waves:    2275
 k-point 30 :   0.5000 0.3750 0.2500  plane waves:    2272
 k-point 31 :   0.5000 0.5000 0.2500  plane waves:    2284
 k-point 32 :   0.3750 0.3750 0.3750  plane waves:    2284
 k-point 33 :   0.5000 0.3750 0.3750  plane waves:    2288
 k-point 34 :   0.5000 0.5000 0.3750  plane waves:    2280
 k-point 35 :   0.5000 0.5000 0.5000  plane waves:    2272

 maximum and minimum number of plane-waves per node :      2301     2216

 maximum number of plane-waves:      2301
 maximum index in each direction: 
   IXMAX=    8   IYMAX=    8   IZMAX=    8
   IXMIN=   -8   IYMIN=   -8   IZMIN=   -8

 NGX is ok and might be reduce to  34
 NGY is ok and might be reduce to  34
 NGZ is ok and might be reduce to  34

 serial   3D FFT for wavefunctions
 parallel 3D FFT for charge:
    minimum data exchange during FFTs selected (reduces bandwidth)


 total amount of memory used by VASP on root node    45842. kBytes
========================================================================

   base      :      30000. kBytes
   nonl-proj :      10616. kBytes
   fftplans  :       1379. kBytes
   grid      :       2479. kBytes
   one-center:         24. kBytes
   wavefun   :       1344. kBytes
 
     INWAV:  cpu time    0.00: real time    0.00
 Broyden mixing: mesh for mixing (old mesh)
   NGX = 17   NGY = 17   NGZ = 17
  (NGX  = 72   NGY  = 72   NGZ  = 72)
  gives a total of   4913 points

 initial charge density was supplied:
 charge density of overlapping atoms calculated
 number of electron      32.0000000 magnetization 
 keeping initial charge density in first step


--------------------------------------------------------------------------------------------------------


 Maximum index for augmentation-charges         2869 (set IRDMAX)


--------------------------------------------------------------------------------------------------------


 First call to EWALD:  gamma=   0.405
 Maximum number of real-space cells 3x 3x 3
 Maximum number of reciprocal cells 3x 3x 3

 FEWALD executed in parallel
    FEWALD:  cpu time    0.00: real time    0.00


----------------------------------------- Iteration    1(   1)  ---------------------------------------


    POTLOK:  cpu time    0.02: real time    0.02
    SETDIJ:  cpu time    0.03: real time    0.03
     EDDAV:  cpu time    1.36: real time    1.39
       DOS:  cpu time    0.00: real time    0.00
    --------------------------------------------
      LOOP:  cpu time    1.41: real time    1.45

 eigenvalue-minimisations  :  3360
 total energy-change (2. order) :-0.9617465E+01  (-0.1678226E+04)
 number of electron      32.0000000 magnetization 
 augmentation part       32.0000000 magnetization 

 Free energy of the ion-electron system (eV)
  ---------------------------------------------------
  alpha Z        PSCENC =        44.11680206
  Ewald energy   TEWEN  =     -1133.53851522
  -Hartree energ DENC   =       -84.16848913
  -exchange      EXHF   =         0.00000000
  -V(xc)+E(xc)   XCENC  =        18.11747152
  PAW double counting   =       786.58338398     -718.48787991
  entropy T*S    EENTRO =        -0.00473084
  eigenvalues    EBANDS =        76.90351379
  atomic energy  EATOM  =      1000.86097872
  ---------------------------------------------------
  free energy    TOTEN  =        -9.61746504 eV

  energy without entropy =       -9.61273420  energy(sigma->0) =       -9.61509962


--------------------------------------------------------------------------------------------------------




----------------------------------------- Iteration    1(   2)  ---------------------------------------


     EDDAV:  cpu time    2.33: real time    2.41
       DOS:  cpu time    0.00: real time    0.00
    --------------------------------------------
      LOOP:  cpu time    2.34: real time    2.43

 eigenvalue-minimisations  :  5088
 total energy-change (2. order) :-0.5738733E+02  (-0.5704557E+02)
 number of electron      32.0000000 magnetization 
 augmentation part       32.0000000 magnetization 

 Free energy of the ion-electron system (eV)
  ---------------------------------------------------
  alpha Z        PSCENC =        44.11680206
  Ewald energy   TEWEN  =     -1133.53851522
  -Hartree energ DENC   =       -84.16848913
  -exchange      EXHF   =         0.00000000
  -V(xc)+E(xc)   XCENC  =        18.11747152
  PAW double counting   =       786.58338398     -718.48787991
  entropy T*S    EENTRO =        -0.00000000
  eigenvalues    EBANDS =        19.51145176
  atomic energy  EATOM  =      1000.86097872
  ---------------------------------------------------
  free energy    TOTEN  =       -67.00479623 eV

  energy without entropy =      -67.00479623  energy(sigma->0) =      -67.00479623


--------------------------------------------------------------------------------------------------------




----------------------------------------- Iteration    1(   3)  ---------------------------------------


     EDDAV:  cpu time    1.49: real time    1.49
       DOS:  cpu time    0.00: real time    0.00
    --------------------------------------------
      LOOP:  cpu time    1.49: real time    1.50

 eigenvalue-minimisations  :  3600
 total energy-change (2. order) :-0.4942258E+00  (-0.4942258E+00)
 number of electron      32.0000000 magnetization 
 augmentation part       32.0000000 magnetization 

 Free energy of the ion-electron system (eV)
  ---------------------------------------------------
  alpha Z        PSCENC =        44.11680206
  Ewald energy   TEWEN  =     -1133.53851522
  -Hartree energ DENC   =       -84.16848913
  -exchange      EXHF   =         0.00000000
  -V(xc)+E(xc)   XCENC  =        18.11747152
  PAW double counting   =       786.58338398     -718.48787991
  entropy T*S    EENTRO =        -0.00000000
  eigenvalues    EBANDS =        19.01722591
  atomic energy  EATOM  =      1000.86097872
  ---------------------------------------------------
  free energy    TOTEN  =       -67.49902207 eV

  energy without entropy =      -67.49902207  energy(sigma->0) =      -67.49902207


--------------------------------------------------------------------------------------------------------




----------------------------------------- Iteration    1(   4)  ---------------------------------------


     EDDAV:  cpu time    3.45: real time    3.45
       DOS:  cpu time    0.00: real time    0.00
    --------------------------------------------
      LOOP:  cpu time    3.45: real time    3.45

 eigenvalue-minimisations  :  6576
 total energy-change (2. order) :-0.8567441E-03  (-0.8567442E-03)
 number of electron      32.0000000 magnetization 
 augmentation part       32.0000000 magnetization 

 Free energy of the ion-electron system (eV)
  ---------------------------------------------------
  alpha Z        PSCENC =        44.11680206
  Ewald energy   TEWEN  =     -1133.53851522
  -Hartree energ DENC   =       -84.16848913
  -exchange      EXHF   =         0.00000000
  -V(xc)+E(xc)   XCENC  =        18.11747152
  PAW double counting   =       786.58338398     -718.48787991
  entropy T*S    EENTRO =        -0.00000000
  eigenvalues    EBANDS =        19.01636917
  atomic energy  EATOM  =      1000.86097872
  ---------------------------------------------------
  free energy    TOTEN  =       -67.49987881 eV

  energy without entropy =      -67.49987881  energy(sigma->0) =      -67.49987881


--------------------------------------------------------------------------------------------------------




----------------------------------------- Iteration    1(   5)  ---------------------------------------


     EDDAV:  cpu time    1.48: real time    1.49
       DOS:  cpu time    0.00: real time    0.00
    CHARGE:  cpu time    0.07: real time    0.07
    MIXING:  cpu time    0.00: real time    0.00
    --------------------------------------------
      LOOP:  cpu time    1.55: real time    1.56

 eigenvalue-minimisations  :  3552
 total energy-change (2. order) :-0.3745299E-08  (-0.3744607E-08)
 number of electron      32.0000000 magnetization 
 augmentation part       -0.1960504 magnetization 

 Broyden mixing:
  rms(total) = 0.17318E+01    rms(broyden)= 0.17317E+01
  rms(prec ) = 0.36205E+01
  weight for this iteration     100.00

 Free energy of the ion-electron system (eV)
  ---------------------------------------------------
  alpha Z        PSCENC =        44.11680206
  Ewald energy   TEWEN  =     -1133.53851522
  -Hartree energ DENC   =       -84.16848913
  -exchange      EXHF   =         0.00000000
  -V(xc)+E(xc)   XCENC  =        18.11747152
  PAW double counting   =       786.58338398     -718.48787991
  entropy T*S    EENTRO =        -0.00000000
  eigenvalues    EBANDS =        19.01636917
  atomic energy  EATOM  =      1000.86097872
  ---------------------------------------------------
  free energy    TOTEN  =       -67.49987882 eV

  energy without entropy =      -67.49987882  energy(sigma->0) =      -67.49987882


--------------------------------------------------------------------------------------------------------




----------------------------------------- Iteration    1(   6)  ---------------------------------------


    POTLOK:  cpu time    0.02: real time    0.02
    SETDIJ:  cpu time    0.03: real time    0.03
     EDDAV:  cpu time    1.35: real time    1.35
       DOS:  cpu time    0.00: real time    0.00
    CHARGE:  cpu time    0.07: real time    0.07
    MIXING:  cpu time    0.00: real time    0.00
    --------------------------------------------
      LOOP:  cpu time    1.46: real time    1.46

 eigenvalue-minimisations  :  3360
 total energy-change (2. order) : 0.7020439E+01  (-0.3041716E+01)
 number of electron      32.0000000 magnetization 
 augmentation part       -0.4525301 magnetization 

 Broyden mixing:
  rms(total) = 0.75239E+00    rms(broyden)= 0.75237E+00
  rms(prec ) = 0.10742E+01
  weight for this iteration     100.00

 eigenvalues of (default mixing * dielectric matrix)
  average eigenvalue GAMMA=   1.2779
  1.2779

 Free energy of the ion-electron system (eV)
  ---------------------------------------------------
  alpha Z        PSCENC =        44.11680206
  Ewald energy   TEWEN  =     -1133.53851522
  -Hartree energ DENC   =      -115.69236039
  -exchange      EXHF   =         0.00000000
  -V(xc)+E(xc)   XCENC  =        20.81346097
  PAW double counting   =      1853.77399518    -1786.09581948
  entropy T*S    EENTRO =        -0.00000000
  eigenvalues    EBANDS =        55.28201803
  atomic energy  EATOM  =      1000.86097872
  ---------------------------------------------------
  free energy    TOTEN  =       -60.47944013 eV

  energy without entropy =      -60.47944013  energy(sigma->0) =      -60.47944013


--------------------------------------------------------------------------------------------------------




----------------------------------------- Iteration    1(   7)  ---------------------------------------


    POTLOK:  cpu time    0.02: real time    0.02
    SETDIJ:  cpu time    0.02: real time    0.03
     EDDAV:  cpu time    2.86: real time    2.86
       DOS:  cpu time    0.00: real time    0.00
    CHARGE:  cpu time    0.07: real time    0.07
    MIXING:  cpu time    0.00: real time    0.00
    --------------------------------------------
      LOOP:  cpu time    2.97: real time    2.97

 eigenvalue-minimisations  :  5856
 total energy-change (2. order) : 0.2074295E+00  (-0.1172834E+00)
 number of electron      32.0000000 magnetization 
 augmentation part       -0.4977807 magnetization 

 Broyden mixing:
  rms(total) = 0.34650E+00    rms(broyden)= 0.34649E+00
  rms(prec ) = 0.48364E+00
  weight for this iteration     100.00

 eigenvalues of (default mixing * dielectric matrix)
  average eigenvalue GAMMA=   1.5328
  1.2187  1.8469

 Free energy of the ion-electron system (eV)
  ---------------------------------------------------
  alpha Z        PSCENC =        44.11680206
  Ewald energy   TEWEN  =     -1133.53851522
  -Hartree energ DENC   =      -123.99953585
  -exchange      EXHF   =         0.00000000
  -V(xc)+E(xc)   XCENC  =        21.68265032
  PAW double counting   =      2985.23341221    -2917.72952326
  entropy T*S    EENTRO =        -0.00000000
  eigenvalues    EBANDS =        63.10172036
  atomic energy  EATOM  =      1000.86097872
  ---------------------------------------------------
  free energy    TOTEN  =       -60.27201067 eV

  energy without entropy =      -60.27201067  energy(sigma->0) =      -60.27201067


--------------------------------------------------------------------------------------------------------




----------------------------------------- Iteration    1(   8)  ---------------------------------------


    POTLOK:  cpu time    0.02: real time    0.02
    SETDIJ:  cpu time    0.02: real time    0.03
     EDDAV:  cpu time    2.12: real time    2.12
       DOS:  cpu time    0.00: real time    0.00
    CHARGE:  cpu time    0.07: real time    0.07
    MIXING:  cpu time    0.00: real time    0.00
    --------------------------------------------
      LOOP:  cpu time    2.23: real time    2.23

 eigenvalue-minimisations  :  4656
 total energy-change (2. order) : 0.2999161E-01  (-0.6377782E-02)
 number of electron      32.0000000 magnetization 
 augmentation part       -0.4890762 magnetization 

 Broyden mixing:
  rms(total) = 0.50369E-01    rms(broyden)= 0.50368E-01
  rms(prec ) = 0.84278E-01
  weight for this iteration     100.00

 eigenvalues of (default mixing * dielectric matrix)
  average eigenvalue GAMMA=   1.4994
  2.3716  0.9743  1.1525

 Free energy of the ion-electron system (eV)
  ---------------------------------------------------
  alpha Z        PSCENC =        44.11680206
  Ewald energy   TEWEN  =     -1133.53851522
  -Hartree energ DENC   =      -127.12741629
  -exchange      EXHF   =         0.00000000
  -V(xc)+E(xc)   XCENC  =        22.14393100
  PAW double counting   =      3924.61849670    -3857.25300403
  entropy T*S    EENTRO =        -0.00000000
  eigenvalues    EBANDS =        65.93670800
  atomic energy  EATOM  =      1000.86097872
  ---------------------------------------------------
  free energy    TOTEN  =       -60.24201906 eV

  energy without entropy =      -60.24201906  energy(sigma->0) =      -60.24201906


--------------------------------------------------------------------------------------------------------




----------------------------------------- Iteration    1(   9)  ---------------------------------------


    POTLOK:  cpu time    0.02: real time    0.02
    SETDIJ:  cpu time    0.02: real time    0.03
     EDDAV:  cpu time    3.03: real time    3.03
       DOS:  cpu time    0.00: real time    0.00
    CHARGE:  cpu time    0.06: real time    0.07
    MIXING:  cpu time    0.00: real time    0.00
    --------------------------------------------
      LOOP:  cpu time    3.14: real time    3.15

 eigenvalue-minimisations  :  6048
 total energy-change (2. order) :-0.1414451E-02  (-0.3211450E-03)
 number of electron      32.0000000 magnetization 
 augmentation part       -0.4893128 magnetization 

 Broyden mixing:
  rms(total) = 0.17624E-01    rms(broyden)= 0.17624E-01
  rms(prec ) = 0.23168E-01
  weight for this iteration     100.00

 eigenvalues of (default mixing * dielectric matrix)
  average eigenvalue GAMMA=   1.7833
  1.0837  1.0837  2.4830  2.4830

 Free energy of the ion-electron system (eV)
  ---------------------------------------------------
  alpha Z        PSCENC =        44.11680206
  Ewald energy   TEWEN  =     -1133.53851522
  -Hartree energ DENC   =      -128.00410322
  -exchange      EXHF   =         0.00000000
  -V(xc)+E(xc)   XCENC  =        22.25796919
  PAW double counting   =      4093.19197536    -4025.84237331
  entropy T*S    EENTRO =        -0.00000000
  eigenvalues    EBANDS =        66.71383291
  atomic energy  EATOM  =      1000.86097872
  ---------------------------------------------------
  free energy    TOTEN  =       -60.24343352 eV

  energy without entropy =      -60.24343352  energy(sigma->0) =      -60.24343352


--------------------------------------------------------------------------------------------------------




----------------------------------------- Iteration    1(  10)  ---------------------------------------


    POTLOK:  cpu time    0.02: real time    0.02
    SETDIJ:  cpu time    0.03: real time    0.03
     EDDAV:  cpu time    1.91: real time    1.91
       DOS:  cpu time    0.00: real time    0.00
    CHARGE:  cpu time    0.07: real time    0.07
    MIXING:  cpu time    0.00: real time    0.00
    --------------------------------------------
      LOOP:  cpu time    2.02: real time    2.02

 eigenvalue-minimisations  :  4272
 total energy-change (2. order) :-0.5162997E-03  (-0.7347482E-04)
 number of electron      32.0000000 magnetization 
 augmentation part       -0.4901610 magnetization 

 Broyden mixing:
  rms(total) = 0.33906E-02    rms(broyden)= 0.33906E-02
  rms(prec ) = 0.47773E-02
  weight for this iteration     100.00

 eigenvalues of (default mixing * dielectric matrix)
  average eigenvalue GAMMA=   1.7441
  2.9153  2.4923  1.0540  1.1295  1.1295

 Free energy of the ion-electron system (eV)
  ---------------------------------------------------
  alpha Z        PSCENC =        44.11680206
  Ewald energy   TEWEN  =     -1133.53851522
  -Hartree energ DENC   =      -128.11772351
  -exchange      EXHF   =         0.00000000
  -V(xc)+E(xc)   XCENC  =        22.27320465
  PAW double counting   =      4065.31408207    -3997.94979491
  entropy T*S    EENTRO =        -0.00000000
  eigenvalues    EBANDS =        66.79701633
  atomic energy  EATOM  =      1000.86097872
  ---------------------------------------------------
  free energy    TOTEN  =       -60.24394981 eV

  energy without entropy =      -60.24394981  energy(sigma->0) =      -60.24394981


--------------------------------------------------------------------------------------------------------




----------------------------------------- Iteration    1(  11)  ---------------------------------------


    POTLOK:  cpu time    0.02: real time    0.02
    SETDIJ:  cpu time    0.02: real time    0.03
     EDDAV:  cpu time    2.95: real time    2.95
       DOS:  cpu time    0.00: real time    0.00
    CHARGE:  cpu time    0.07: real time    0.07
    MIXING:  cpu time    0.00: real time    0.00
    --------------------------------------------
      LOOP:  cpu time    3.06: real time    3.07

 eigenvalue-minimisations  :  5904
 total energy-change (2. order) :-0.1226051E-04  (-0.5749937E-05)
 number of electron      32.0000000 magnetization 
 augmentation part       -0.4899106 magnetization 

 Broyden mixing:
  rms(total) = 0.13226E-02    rms(broyden)= 0.13226E-02
  rms(prec ) = 0.17898E-02
  weight for this iteration     100.00

 eigenvalues of (default mixing * dielectric matrix)
  average eigenvalue GAMMA=   1.7843
  0.9577  1.1003  1.1003  3.0037  2.4333  2.1106

 Free energy of the ion-electron system (eV)
  ---------------------------------------------------
  alpha Z        PSCENC =        44.11680206
  Ewald energy   TEWEN  =     -1133.53851522
  -Hartree energ DENC   =      -128.10772011
  -exchange      EXHF   =         0.00000000
  -V(xc)+E(xc)   XCENC  =        22.27362204
  PAW double counting   =      4056.21649975    -3988.85182360
  entropy T*S    EENTRO =        -0.00000000
  eigenvalues    EBANDS =        66.78619430
  atomic energy  EATOM  =      1000.86097872
  ---------------------------------------------------
  free energy    TOTEN  =       -60.24396208 eV

  energy without entropy =      -60.24396208  energy(sigma->0) =      -60.24396208


--------------------------------------------------------------------------------------------------------




----------------------------------------- Iteration    1(  12)  ---------------------------------------


    POTLOK:  cpu time    0.02: real time    0.02
    SETDIJ:  cpu time    0.03: real time    0.03
     EDDAV:  cpu time    1.87: real time    1.88
       DOS:  cpu time    0.00: real time    0.00
    CHARGE:  cpu time    0.06: real time    0.07
    MIXING:  cpu time    0.00: real time    0.00
    --------------------------------------------
      LOOP:  cpu time    1.98: real time    1.99

 eigenvalue-minimisations  :  4224
 total energy-change (2. order) :-0.1539580E-05  (-0.3070225E-06)
 number of electron      32.0000000 magnetization 
 augmentation part       -0.4898693 magnetization 

 Broyden mixing:
  rms(total) = 0.21091E-03    rms(broyden)= 0.21091E-03
  rms(prec ) = 0.31208E-03
  weight for this iteration     100.00

 eigenvalues of (default mixing * dielectric matrix)
  average eigenvalue GAMMA=   1.6249
  2.8897  2.4424  2.1239  1.0962  1.0962  0.9258  0.7998

 Free energy of the ion-electron system (eV)
  ---------------------------------------------------
  alpha Z        PSCENC =        44.11680206
  Ewald energy   TEWEN  =     -1133.53851522
  -Hartree energ DENC   =      -128.12162032
  -exchange      EXHF   =         0.00000000
  -V(xc)+E(xc)   XCENC  =        22.27442600
  PAW double counting   =      4053.47024279    -3986.10749809
  entropy T*S    EENTRO =        -0.00000000
  eigenvalues    EBANDS =        66.80122046
  atomic energy  EATOM  =      1000.86097872
  ---------------------------------------------------
  free energy    TOTEN  =       -60.24396361 eV

  energy without entropy =      -60.24396361  energy(sigma->0) =      -60.24396361


--------------------------------------------------------------------------------------------------------




----------------------------------------- Iteration    1(  13)  ---------------------------------------


    POTLOK:  cpu time    0.02: real time    0.02
    SETDIJ:  cpu time    0.03: real time    0.03
     EDDAV:  cpu time    1.92: real time    1.92
       DOS:  cpu time    0.00: real time    0.00
    --------------------------------------------
      LOOP:  cpu time    1.97: real time    1.97

 eigenvalue-minimisations  :  3792
 total energy-change (2. order) :-0.1222188E-06  (-0.6696562E-08)
 number of electron      32.0000000 magnetization 
 augmentation part       -0.4898693 magnetization 

 Free energy of the ion-electron system (eV)
  ---------------------------------------------------
  alpha Z        PSCENC =        44.11680206
  Ewald energy   TEWEN  =     -1133.53851522
  -Hartree energ DENC   =      -128.12223346
  -exchange      EXHF   =         0.00000000
  -V(xc)+E(xc)   XCENC  =        22.27440743
  PAW double counting   =      4053.71000953    -3986.34731571
  entropy T*S    EENTRO =        -0.00000000
  eigenvalues    EBANDS =        66.80190291
  atomic energy  EATOM  =      1000.86097872
  ---------------------------------------------------
  free energy    TOTEN  =       -60.24396374 eV

  energy without entropy =      -60.24396374  energy(sigma->0) =      -60.24396374


--------------------------------------------------------------------------------------------------------




 average (electrostatic) potential at core
  the test charge radii are     0.9892  0.6991
  (the norm of the test charge is              1.0000)
       1 -80.5769       2 -80.5769       3 -80.5769       4 -80.5769       5 -44.9931
       6 -44.9931       7 -44.9931       8 -44.9931
 
 
 
 E-fermi :   8.4535     XC(G=0): -11.2917     alpha+bet :-16.1933


 k-point     1 :       0.0000    0.0000    0.0000
  band No.  band energies     occupation 
      1      -7.3459      2.00000
      2      -2.3984      2.00000
      3      -2.3984      2.00000
      4      -2.3984      2.00000
      5       0.1933      2.00000
      6       0.1933      2.00000
      7       0.1933      2.00000
      8       4.7853      2.00000
      9       4.7853      2.00000
     10       4.7853      2.00000
     11       4.7853      2.00000
     12       4.7853      2.00000
     13       4.7853      2.00000
     14       7.9415      2.00000
     15       7.9415      2.00000
     16       7.9415      2.00000
     17       9.3122      0.00000
     18       9.3122      0.00000
     19       9.3122      0.00000
     20      12.2124      0.00000
     21      12.2124      0.00000
     22      12.2124      0.00000
     23      14.0021      0.00000
     24      15.1469      0.00000
     25      15.1469      0.00000
     26      15.1469      0.00000
     27      21.8037      0.00000
     28      21.8037      0.00000
     29      21.8037      0.00000
     30      21.8037      0.00000
     31      21.8037      0.00000
     32      21.8037      0.00000
     33      22.3620      0.00000
     34      22.3620      0.00000
     35      22.5315      0.00000
     36      22.5315      0.00000
     37      22.5315      0.00000
     38      24.1936      0.00000
     39      25.0967      0.00000
     40      25.0967      0.00000
     41      25.0967      0.00000
     42      27.9047      0.00000
     43      27.9047      0.00000
     44      27.9047      0.00000
     45      29.8975      0.00000
     46      29.8975      0.00000
     47      29.8975      0.00000
     48      29.8976      0.00000

 k-point     2 :       0.1250   -0.0000    0.0000
  band No.  band energies     occupation 
      1      -7.2452      2.00000
      2      -2.9502      2.00000
      3      -2.3681      2.00000
      4      -2.3681      2.00000
      5       0.2725      2.00000
      6       0.2725      2.00000
      7       0.8205      2.00000
      8       4.5021      2.00000
      9       4.5021      2.00000
     10       4.5235      2.00000
     11       4.5235      2.00000
     12       4.8677      2.00000
     13       4.8677      2.00000
     14       7.6211      2.00000
     15       7.7450      2.00000
     16       7.7450      2.00000
     17       9.4930      0.00000
     18       9.8093      0.00000
     19       9.8093      0.00000
     20      12.3353      0.00000
     21      12.6726      0.00000
     22      12.6726      0.00000
     23      14.2738      0.00000
     24      14.8932      0.00000
     25      15.4341      0.00000
     26      15.4341      0.00000
     27      21.1267      0.00000
     28      21.2010      0.00000
     29      21.2010      0.00000
     30      21.4765      0.00000
     31      21.4765      0.00000
     32      21.8276      0.00000
     33      21.8276      0.00000
     34      22.1903      0.00000
     35      22.1903      0.00000
     36      22.2480      0.00000
     37      22.4757      0.00000
     38      24.5703      0.00000
     39      25.2997      0.00000
     40      25.2997      0.00000
     41      26.1236      0.00000
     42      26.9562      0.00000
     43      26.9562      0.00000
     44      27.3441      0.00000
     45      29.3169      0.00000
     46      29.3169      0.00000
     47      30.2002      0.00000
     48      30.2005      0.00000

 k-point     3 :       0.2500   -0.0000    0.0000
  band No.  band energies     occupation 
      1      -6.9445      2.00000
      2      -3.9434      2.00000
      3      -2.2917      2.00000
      4      -2.2917      2.00000
      5       0.4935      2.00000
      6       0.4935      2.00000
      7       2.0273      2.00000
      8       3.9193      2.00000
      9       3.9193      2.00000
     10       3.9442      2.00000
     11       3.9442      2.00000
     12       5.1114      2.00000
     13       5.1114      2.00000
     14       6.8203      2.00000
     15       7.2508      2.00000
     16       7.2508      2.00000
     17      10.0291      0.00000
     18      10.9912      0.00000
     19      10.9912      0.00000
     20      12.7076      0.00000
     21      13.8783      0.00000
     22      13.8783      0.00000
     23      14.0359      0.00000
     24      15.0029      0.00000
     25      16.1930      0.00000
     26      16.1930      0.00000
     27      19.3717      0.00000
     28      19.7536      0.00000
     29      19.7536      0.00000
     30      20.6460      0.00000
     31      20.6460      0.00000
     32      21.0907      0.00000
     33      21.0907      0.00000
     34      21.4783      0.00000
     35      21.9006      0.00000
     36      21.9006      0.00000
     37      22.8159      0.00000
     38      25.7182      0.00000
     39      25.9078      0.00000
     40      25.9078      0.00000
     41      25.9108      0.00000
     42      25.9108      0.00000
     43      26.2427      0.00000
     44      27.3563      0.00000
     45      28.9436      0.00000
     46      28.9436      0.00000
     47      30.2180      0.00000
     48      30.5726      0.00000

 k-point     4 :       0.3750   -0.0000    0.0000
  band No.  band energies     occupation 
      1      -6.4486      2.00000
      2      -4.9196      2.00000
      3      -2.2102      2.00000
      4      -2.2102      2.00000
      5       0.7837      2.00000
      6       0.7837      2.00000
      7       3.3032      2.00000
      8       3.3032      2.00000
      9       3.3295      2.00000
     10       3.4852      2.00000
     11       3.4852      2.00000
     12       5.5053      2.00000
     13       5.5053      2.00000
     14       5.7726      2.00000
     15       6.6341      2.00000
     16       6.6341      2.00000
     17      10.8844      0.00000
     18      12.3640      0.00000
     19      12.3640      0.00000
     20      13.0596      0.00000
     21      13.3398      0.00000
     22      15.0425      0.00000
     23      15.5351      0.00000
     24      15.5351      0.00000
     25      17.2300      0.00000
     26      17.2300      0.00000
     27      18.1297      0.00000
     28      18.1297      0.00000
     29      18.6361      0.00000
     30      19.3933      0.00000
     31      19.3933      0.00000
     32      19.5623      0.00000
     33      19.5623      0.00000
     34      20.4121      0.00000
     35      21.9690      0.00000
     36      21.9690      0.00000
     37      23.3787      0.00000
     38      25.1268      0.00000
     39      25.3819      0.00000
     40      25.3819      0.00000
     41      26.9096      0.00000
     42      26.9096      0.00000
     43      27.3395      0.00000
     44      28.3603      0.00000
     45      28.7876      0.00000
     46      28.7876      0.00000
     47      29.7357      0.00000
     48      29.7428      0.00000

 k-point     5 :       0.5000   -0.0000    0.0000
  band No.  band energies     occupation 
      1      -5.7676      2.00000
      2      -5.7676      2.00000
      3      -2.1747      2.00000
      4      -2.1747      2.00000
      5       0.9429      2.00000
      6       0.9429      2.00000
      7       3.0215      2.00000
      8       3.0215      2.00000
      9       3.3130      2.00000
     10       3.3130      2.00000
     11       4.5940      2.00000
     12       4.5940      2.00000
     13       6.0268      2.00000
     14       6.0268      2.00000
     15       6.0268      2.00000
     16       6.0268      2.00000
     17      11.9525      0.00000
     18      11.9525      0.00000
     19      13.1289      0.00000
     20      13.1289      0.00000
     21      14.2154      0.00000
     22      14.2154      0.00000
     23      17.2424      0.00000
     24      17.2424      0.00000
     25      17.2667      0.00000
     26      17.2667      0.00000
     27      17.6444      0.00000
     28      17.6444      0.00000
     29      18.3890      0.00000
     30      18.3890      0.00000
     31      18.3890      0.00000
     32      18.3890      0.00000
     33      19.2955      0.00000
     34      19.2955      0.00000
     35      21.9991      0.00000
     36      21.9991      0.00000
     37      24.1555      0.00000
     38      24.1555      0.00000
     39      25.2311      0.00000
     40      25.2311      0.00000
     41      28.2523      0.00000
     42      28.2523      0.00000
     43      28.2523      0.00000
     44      28.2523      0.00000
     45      28.7455      0.00000
     46      28.7455      0.00000
     47      28.9437      0.00000
     48      28.9437      0.00000

 k-point     6 :       0.1250    0.1250    0.0000
  band No.  band energies     occupation 
      1      -7.1449      2.00000
      2      -2.8977      2.00000
      3      -2.8977      2.00000
      4      -2.3492      2.00000
      5       0.3476      2.00000
      6       0.8562      2.00000
      7       0.8562      2.00000
      8       3.7661      2.00000
      9       4.5744      2.00000
     10       4.5744      2.00000
     11       4.6512      2.00000
     12       4.6512      2.00000
     13       4.9362      2.00000
     14       7.0315      2.00000
     15       7.5385      2.00000
     16       7.9178      2.00000
     17       9.9770      0.00000
     18       9.9770      0.00000
     19      10.0418      0.00000
     20      12.7899      0.00000
     21      12.7899      0.00000
     22      13.1840      0.00000
     23      14.4074      0.00000
     24      15.0838      0.00000
     25      15.2720      0.00000
     26      15.7537      0.00000
     27      20.7038      0.00000
     28      20.7038      0.00000
     29      20.9480      0.00000
     30      21.1361      0.00000
     31      21.3430      0.00000
     32      21.4947      0.00000
     33      21.4947      0.00000
     34      21.7860      0.00000
     35      21.9356      0.00000
     36      22.1503      0.00000
     37      22.1503      0.00000
     38      24.6445      0.00000
     39      25.4201      0.00000
     40      25.7704      0.00000
     41      26.1429      0.00000
     42      26.8144      0.00000
     43      26.8144      0.00000
     44      27.1330      0.00000
     45      29.4429      0.00000
     46      29.4511      0.00000
     47      29.4511      0.00000
     48      30.6534      0.00000

 k-point     7 :       0.2500    0.1250    0.0000
  band No.  band energies     occupation 
      1      -6.8454      2.00000
      2      -3.8693      2.00000
      3      -2.7539      2.00000
      4      -2.3122      2.00000
      5       0.5530      2.00000
      6       0.9390      2.00000
      7       1.9710      2.00000
      8       3.0555      2.00000
      9       3.9224      2.00000
     10       4.2302      2.00000
     11       4.8176      2.00000
     12       4.8214      2.00000
     13       5.0036      2.00000
     14       6.1671      2.00000
     15       7.0223      2.00000
     16       7.6510      2.00000
     17      10.4783      0.00000
     18      10.8755      0.00000
     19      11.1356      0.00000
     20      13.1444      0.00000
     21      13.9829      0.00000
     22      14.3409      0.00000
     23      14.4273      0.00000
     24      14.9811      0.00000
     25      15.9741      0.00000
     26      16.3667      0.00000
     27      19.1191      0.00000
     28      19.5811      0.00000
     29      19.7154      0.00000
     30      19.7985      0.00000
     31      20.6303      0.00000
     32      21.0316      0.00000
     33      21.3632      0.00000
     34      21.4029      0.00000
     35      21.5725      0.00000
     36      21.6940      0.00000
     37      22.0882      0.00000
     38      25.1070      0.00000
     39      25.2987      0.00000
     40      25.7873      0.00000
     41      25.8606      0.00000
     42      26.2119      0.00000
     43      26.7643      0.00000
     44      28.5433      0.00000
     45      29.1327      0.00000
     46      29.2861      0.00000
     47      29.3835      0.00000
     48      30.4240      0.00000

 k-point     8 :       0.3750    0.1250    0.0000
  band No.  band energies     occupation 
      1      -6.3520      2.00000
      2      -4.8337      2.00000
      3      -2.5624      2.00000
      4      -2.3091      2.00000
      5       0.8107      2.00000
      6       1.0037      2.00000
      7       2.6450      2.00000
      8       3.1300      2.00000
      9       3.2233      2.00000
     10       3.9735      2.00000
     11       4.4127      2.00000
     12       5.2143      2.00000
     13       5.2197      2.00000
     14       5.5675      2.00000
     15       6.3824      2.00000
     16       7.0377      2.00000
     17      11.2909      0.00000
     18      12.1370      0.00000
     19      12.4707      0.00000
     20      13.4103      0.00000
     21      13.7423      0.00000
     22      15.2333      0.00000
     23      15.6223      0.00000
     24      15.9235      0.00000
     25      16.7627      0.00000
     26      17.0492      0.00000
     27      17.4396      0.00000
     28      18.2710      0.00000
     29      18.6093      0.00000
     30      19.0870      0.00000
     31      19.4611      0.00000
     32      19.4948      0.00000
     33      20.0569      0.00000
     34      20.8229      0.00000
     35      21.4780      0.00000
     36      21.5826      0.00000
     37      22.9319      0.00000
     38      24.6554      0.00000
     39      25.0308      0.00000
     40      25.1756      0.00000
     41      26.3107      0.00000
     42      26.6502      0.00000
     43      28.2030      0.00000
     44      28.7108      0.00000
     45      29.0367      0.00000
     46      29.1300      0.00000
     47      29.2746      0.00000
     48      29.6943      0.00000

 k-point     9 :       0.5000    0.1250    0.0000
  band No.  band energies     occupation 
      1      -5.6750      2.00000
      2      -5.6750      2.00000
      3      -2.3932      2.00000
      4      -2.3932      2.00000
      5       0.9788      2.00000
      6       0.9788      2.00000
      7       2.7187      2.00000
      8       2.7187      2.00000
      9       4.0553      2.00000
     10       4.0553      2.00000
     11       4.2097      2.00000
     12       4.2097      2.00000
     13       5.7556      2.00000
     14       5.7556      2.00000
     15       6.2862      2.00000
     16       6.2862      2.00000
     17      12.3261      0.00000
     18      12.3261      0.00000
     19      13.0704      0.00000
     20      13.0704      0.00000
     21      14.5588      0.00000
     22      14.5588      0.00000
     23      16.5474      0.00000
     24      16.5474      0.00000
     25      17.4356      0.00000
     26      17.4356      0.00000
     27      17.5382      0.00000
     28      17.5382      0.00000
     29      18.2618      0.00000
     30      18.2618      0.00000
     31      18.5254      0.00000
     32      18.5254      0.00000
     33      19.8124      0.00000
     34      19.8124      0.00000
     35      21.5629      0.00000
     36      21.5629      0.00000
     37      24.0122      0.00000
     38      24.0122      0.00000
     39      24.6671      0.00000
     40      24.6671      0.00000
     41      27.5355      0.00000
     42      27.5355      0.00000
     43      27.8107      0.00000
     44      27.8107      0.00000
     45      29.0435      0.00000
     46      29.0435      0.00000
     47      29.7883      0.00000
     48      29.7883      0.00000

 k-point    10 :       0.2500    0.2500    0.0000
  band No.  band energies     occupation 
      1      -6.5500      2.00000
      2      -3.6559      2.00000
      3      -3.6559      2.00000
      4      -2.4028      2.00000
      5       0.7052      2.00000
      6       1.7816      2.00000
      7       1.7816      2.00000
      8       2.4733      2.00000
      9       4.1434      2.00000
     10       4.1434      2.00000
     11       4.8575      2.00000
     12       4.8575      2.00000
     13       5.2564      2.00000
     14       5.3700      2.00000
     15       6.4591      2.00000
     16       7.7821      2.00000
     17      11.0367      0.00000
     18      11.5719      0.00000
     19      11.5719      0.00000
     20      14.2965      0.00000
     21      14.2965      0.00000
     22      14.9152      0.00000
     23      15.0894      0.00000
     24      15.6062      0.00000
     25      15.6231      0.00000
     26      16.6671      0.00000
     27      18.0848      0.00000
     28      18.0848      0.00000
     29      19.5747      0.00000
     30      19.6627      0.00000
     31      20.2415      0.00000
     32      20.5368      0.00000
     33      20.5368      0.00000
     34      20.8075      0.00000
     35      21.5526      0.00000
     36      21.5526      0.00000
     37      21.5560      0.00000
     38      23.7744      0.00000
     39      25.5699      0.00000
     40      25.5699      0.00000
     41      25.5922      0.00000
     42      26.0727      0.00000
     43      27.9954      0.00000
     44      29.0208      0.00000
     45      29.0208      0.00000
     46      29.5313      0.00000
     47      30.0588      0.00000
     48      30.0588      0.00000

 k-point    11 :       0.3750    0.2500    0.0000
  band No.  band energies     occupation 
      1      -6.0643      2.00000
      2      -4.5813      2.00000
      3      -3.3318      2.00000
      4      -2.6184      2.00000
      5       0.8966      2.00000
      6       1.4709      2.00000
      7       2.3771      2.00000
      8       2.6354      2.00000
      9       3.3877      2.00000
     10       4.3441      2.00000
     11       4.5509      2.00000
     12       4.9029      2.00000
     13       5.3983      2.00000
     14       5.7413      2.00000
     15       5.7727      2.00000
     16       7.4210      2.00000
     17      11.8762      0.00000
     18      12.2968      0.00000
     19      12.7908      0.00000
     20      14.2884      0.00000
     21      14.8143      0.00000
     22      15.4008      0.00000
     23      15.8772      0.00000
     24      16.4214      0.00000
     25      16.5201      0.00000
     26      16.6069      0.00000
     27      16.6762      0.00000
     28      17.0922      0.00000
     29      18.5297      0.00000
     30      19.2664      0.00000
     31      19.3993      0.00000
     32      19.5383      0.00000
     33      20.1609      0.00000
     34      20.5827      0.00000
     35      20.9565      0.00000
     36      21.1510      0.00000
     37      22.4755      0.00000
     38      23.1425      0.00000
     39      24.3860      0.00000
     40      25.0012      0.00000
     41      26.3520      0.00000
     42      26.6103      0.00000
     43      28.0910      0.00000
     44      28.8959      0.00000
     45      29.0990      0.00000
     46      29.4605      0.00000
     47      29.5071      0.00000
     48      29.8175      0.00000

 k-point    12 :       0.5000    0.2500    0.0000
  band No.  band energies     occupation 
      1      -5.4003      2.00000
      2      -5.4003      2.00000
      3      -2.9557      2.00000
      4      -2.9557      2.00000
      5       1.1448      2.00000
      6       1.1448      2.00000
      7       2.7433      2.00000
      8       2.7433      2.00000
      9       3.4744      2.00000
     10       3.4744      2.00000
     11       5.1096      2.00000
     12       5.1096      2.00000
     13       5.1416      2.00000
     14       5.1416      2.00000
     15       6.6743      2.00000
     16       6.6743      2.00000
     17      12.9462      0.00000
     18      12.9462      0.00000
     19      13.2572      0.00000
     20      13.2572      0.00000
     21      15.4639      0.00000
     22      15.4639      0.00000
     23      16.2062      0.00000
     24      16.2062      0.00000
     25      16.3034      0.00000
     26      16.3034      0.00000
     27      17.5966      0.00000
     28      17.5966      0.00000
     29      17.8876      0.00000
     30      17.8876      0.00000
     31      19.3253      0.00000
     32      19.3253      0.00000
     33      20.0637      0.00000
     34      20.0637      0.00000
     35      20.8202      0.00000
     36      20.8202      0.00000
     37      23.4418      0.00000
     38      23.4418      0.00000
     39      23.8110      0.00000
     40      23.8110      0.00000
     41      27.2040      0.00000
     42      27.2040      0.00000
     43      27.6146      0.00000
     44      27.6146      0.00000
     45      29.2767      0.00000
     46      29.2767      0.00000
     47      29.9482      0.00000
     48      29.9482      0.00000

 k-point    13 :       0.3750    0.3750    0.0000
  band No.  band energies     occupation 
      1      -5.5933      2.00000
      2      -4.1795      2.00000
      3      -4.1795      2.00000
      4      -3.1075      2.00000
      5       1.1064      2.00000
      6       2.0407      2.00000
      7       2.0407      2.00000
      8       2.5753      2.00000
      9       3.4867      2.00000
     10       3.7818      2.00000
     11       3.7818      2.00000
     12       5.0440      2.00000
     13       5.9759      2.00000
     14       5.9759      2.00000
     15       6.0225      2.00000
     16       7.4044      2.00000
     17      12.1324      0.00000
     18      13.3169      0.00000
     19      13.3169      0.00000
     20      14.6311      0.00000
     21      15.6515      0.00000
     22      15.8445      0.00000
     23      15.8445      0.00000
     24      16.0973      0.00000
     25      16.2774      0.00000
     26      16.2774      0.00000
     27      16.8745      0.00000
     28      17.2236      0.00000
     29      18.1150      0.00000
     30      18.8503      0.00000
     31      18.8503      0.00000
     32      18.8779      0.00000
     33      19.3197      0.00000
     34      20.8547      0.00000
     35      20.8547      0.00000
     36      21.1459      0.00000
     37      21.7098      0.00000
     38      22.9437      0.00000
     39      24.0806      0.00000
     40      24.0806      0.00000
     41      26.7827      0.00000
     42      27.0704      0.00000
     43      27.9859      0.00000
     44      27.9859      0.00000
     45      29.0389      0.00000
     46      29.0389      0.00000
     47      29.0513      0.00000
     48      29.7391      0.00000

 k-point    14 :       0.5000    0.3750    0.0000
  band No.  band energies     occupation 
      1      -4.9548      2.00000
      2      -4.9548      2.00000
      3      -3.6650      2.00000
      4      -3.6650      2.00000
      5       1.4991      2.00000
      6       1.4991      2.00000
      7       2.7113      2.00000
      8       2.7113      2.00000
      9       3.0858      2.00000
     10       3.0858      2.00000
     11       4.3520      2.00000
     12       4.3520      2.00000
[...]
      3      -3.9552      2.00000
      4      -3.3465      2.00000
      5       0.0171      2.00000
      6       0.6004      2.00000
      7       0.6004      2.00000
      8       1.8573      2.00000
      9       4.5833      2.00000
     10       5.2497      2.00000
     11       5.2497      2.00000
     12       6.2111      2.00000
     13       6.2111      2.00000
     14       6.2327      2.00000
     15       6.5663      2.00000
     16       7.2267      2.00000
     17      12.6737      0.00000
     18      13.0721      0.00000
     19      13.0721      0.00000
     20      13.7389      0.00000
     21      15.2431      0.00000
     22      15.2431      0.00000
     23      15.4460      0.00000
     24      15.4878      0.00000
     25      15.9037      0.00000
     26      16.8166      0.00000
     27      16.9597      0.00000
     28      16.9597      0.00000
     29      17.8368      0.00000
     30      18.1936      0.00000
     31      18.1936      0.00000
     32      18.9158      0.00000
     33      21.2350      0.00000
     34      21.6023      0.00000
     35      21.6023      0.00000
     36      21.9455      0.00000
     37      22.5964      0.00000
     38      23.7452      0.00000
     39      23.9099      0.00000
     40      24.8278      0.00000
     41      24.8278      0.00000
     42      25.9854      0.00000
     43      25.9854      0.00000
     44      26.3858      0.00000
     45      28.7165      0.00000
     46      28.7165      0.00000
     47      29.4460      0.00000
     48      29.7180      0.00000

 k-point    30 :       0.5000    0.3750    0.2500
  band No.  band energies     occupation 
      1      -4.6473      2.00000
      2      -4.6473      2.00000
      3      -3.5989      2.00000
      4      -3.5989      2.00000
      5       0.1036      2.00000
      6       0.1036      2.00000
      7       1.1159      2.00000
      8       1.1159      2.00000
      9       4.9745      2.00000
     10       4.9745      2.00000
     11       6.0178      2.00000
     12       6.0178      2.00000
     13       6.3521      2.00000
     14       6.3521      2.00000
     15       6.8414      2.00000
     16       6.8414      2.00000
     17      13.3640      0.00000
     18      13.3640      0.00000
     19      13.7045      0.00000
     20      13.7045      0.00000
     21      14.9088      0.00000
     22      14.9088      0.00000
     23      14.9551      0.00000
     24      14.9551      0.00000
     25      16.0686      0.00000
     26      16.0686      0.00000
     27      16.7615      0.00000
     28      16.7615      0.00000
     29      18.0812      0.00000
     30      18.0812      0.00000
     31      18.8582      0.00000
     32      18.8582      0.00000
     33      21.4230      0.00000
     34      21.4230      0.00000
     35      22.1121      0.00000
     36      22.1121      0.00000
     37      23.6789      0.00000
     38      23.6789      0.00000
     39      23.6877      0.00000
     40      23.6877      0.00000
     41      25.0894      0.00000
     42      25.0894      0.00000
     43      25.9411      0.00000
     44      25.9411      0.00000
     45      28.9415      0.00000
     46      28.9415      0.00000
     47      29.0542      0.00000
     48      29.0542      0.00000

 k-point    31 :       0.5000    0.5000    0.2500
  band No.  band energies     occupation 
      1      -4.1316      2.00000
      2      -4.1316      2.00000
      3      -4.1316      2.00000
      4      -4.1316      2.00000
      5       0.4570      2.00000
      6       0.4570      2.00000
      7       0.4570      2.00000
      8       0.4570      2.00000
      9       5.5367      2.00000
     10       5.5367      2.00000
     11       5.5367      2.00000
     12       5.5367      2.00000
     13       6.8277      2.00000
     14       6.8277      2.00000
     15       6.8277      2.00000
     16       6.8277      2.00000
     17      13.6779      0.00000
     18      13.6779      0.00000
     19      13.6779      0.00000
     20      13.6779      0.00000
     21      15.0433      0.00000
     22      15.0433      0.00000
     23      15.0433      0.00000
     24      15.0433      0.00000
     25      15.7967      0.00000
     26      15.7967      0.00000
     27      15.7967      0.00000
     28      15.7967      0.00000
     29      18.6055      0.00000
     30      18.6055      0.00000
     31      18.6055      0.00000
     32      18.6055      0.00000
     33      22.2589      0.00000
     34      22.2589      0.00000
     35      22.2589      0.00000
     36      22.2589      0.00000
     37      23.3128      0.00000
     38      23.3128      0.00000
     39      23.3128      0.00000
     40      23.3128      0.00000
     41      25.5244      0.00000
     42      25.5244      0.00000
     43      25.5244      0.00000
     44      25.5244      0.00000
     45      28.6358      0.00000
     46      28.6358      0.00000
     47      28.6358      0.00000
     48      28.6358      0.00000

 k-point    32 :       0.3750    0.3750    0.3750
  band No.  band energies     occupation 
      1      -4.8300      2.00000
      2      -3.7609      2.00000
      3      -3.7609      2.00000
      4      -3.7609      2.00000
      5      -0.0714      2.00000
      6      -0.0714      2.00000
      7      -0.0714      2.00000
      8       0.9683      2.00000
      9       5.8052      2.00000
     10       5.8052      2.00000
     11       5.8052      2.00000
     12       6.4673      2.00000
     13       6.4673      2.00000
     14       6.4673      2.00000
     15       7.0117      2.00000
     16       7.0117      2.00000
     17      13.2414      0.00000
     18      13.2414      0.00000
     19      13.2414      0.00000
     20      13.3854      0.00000
     21      15.0580      0.00000
     22      15.0580      0.00000
     23      15.0580      0.00000
     24      15.3543      0.00000
     25      15.3543      0.00000
     26      16.0597      0.00000
     27      16.0597      0.00000
     28      16.0597      0.00000
     29      17.8661      0.00000
     30      18.6370      0.00000
     31      18.6370      0.00000
     32      18.6370      0.00000
     33      22.2706      0.00000
     34      22.2706      0.00000
     35      22.2706      0.00000
     36      22.9306      0.00000
     37      22.9306      0.00000
     38      23.3131      0.00000
     39      25.0492      0.00000
     40      25.0492      0.00000
     41      25.0492      0.00000
     42      25.2697      0.00000
     43      25.2697      0.00000
     44      25.2697      0.00000
     45      28.5701      0.00000
     46      28.5701      0.00000
     47      28.5701      0.00000
     48      29.2822      0.00000

 k-point    33 :       0.5000    0.3750    0.3750
  band No.  band energies     occupation 
      1      -4.3053      2.00000
      2      -4.3053      2.00000
      3      -3.6671      2.00000
      4      -3.6671      2.00000
      5      -0.3300      2.00000
      6      -0.3300      2.00000
      7       0.2904      2.00000
      8       0.2904      2.00000
      9       5.9672      2.00000
     10       5.9672      2.00000
     11       6.6005      2.00000
     12       6.6005      2.00000
     13       6.7182      2.00000
     14       6.7182      2.00000
     15       6.7432      2.00000
     16       6.7432      2.00000
     17      13.4714      0.00000
     18      13.4714      0.00000
     19      13.5864      0.00000
     20      13.5864      0.00000
     21      14.6118      0.00000
     22      14.6118      0.00000
     23      14.9028      0.00000
     24      14.9028      0.00000
     25      15.5493      0.00000
     26      15.5493      0.00000
     27      15.8525      0.00000
     28      15.8525      0.00000
     29      18.1555      0.00000
     30      18.1555      0.00000
     31      18.6753      0.00000
     32      18.6753      0.00000
     33      22.5501      0.00000
     34      22.5501      0.00000
     35      23.0540      0.00000
     36      23.0540      0.00000
     37      24.2270      0.00000
     38      24.2270      0.00000
     39      24.3864      0.00000
     40      24.3864      0.00000
     41      24.6260      0.00000
     42      24.6260      0.00000
     43      25.1898      0.00000
     44      25.1898      0.00000
     45      28.6988      0.00000
     46      28.6988      0.00000
     47      28.7723      0.00000
     48      28.7723      0.00000

 k-point    34 :       0.5000    0.5000    0.3750
  band No.  band energies     occupation 
      1      -3.9316      2.00000
      2      -3.9316      2.00000
      3      -3.9316      2.00000
      4      -3.9316      2.00000
      5      -0.2434      2.00000
      6      -0.2434      2.00000
      7      -0.2434      2.00000
      8      -0.2434      2.00000
      9       6.5004      2.00000
     10       6.5004      2.00000
     11       6.5004      2.00000
     12       6.5004      2.00000
     13       6.8736      2.00000
     14       6.8736      2.00000
     15       6.8736      2.00000
     16       6.8736      2.00000
     17      13.4739      0.00000
     18      13.4739      0.00000
     19      13.4739      0.00000
     20      13.4739      0.00000
     21      14.9187      0.00000
     22      14.9187      0.00000
     23      14.9187      0.00000
     24      14.9187      0.00000
     25      15.2901      0.00000
     26      15.2901      0.00000
     27      15.2901      0.00000
     28      15.2901      0.00000
     29      18.2576      0.00000
     30      18.2576      0.00000
     31      18.2576      0.00000
     32      18.2576      0.00000
     33      23.6922      0.00000
     34      23.6922      0.00000
     35      23.6922      0.00000
     36      23.6922      0.00000
     37      23.9473      0.00000
     38      23.9473      0.00000
     39      23.9473      0.00000
     40      23.9473      0.00000
     41      25.0985      0.00000
     42      25.0985      0.00000
     43      25.0985      0.00000
     44      25.0985      0.00000
     45      28.2990      0.00000
     46      28.2990      0.00000
     47      28.2990      0.00000
     48      28.2990      0.00000

 k-point    35 :       0.5000    0.5000    0.5000
  band No.  band energies     occupation 
      1      -3.8345      2.00000
      2      -3.8345      2.00000
      3      -3.8345      2.00000
      4      -3.8345      2.00000
      5      -0.5118      2.00000
      6      -0.5118      2.00000
      7      -0.5118      2.00000
      8      -0.5118      2.00000
      9       6.8931      2.00000
     10       6.8931      2.00000
     11       6.8931      2.00000
     12       6.8931      2.00000
     13       6.8931      2.00000
     14       6.8931      2.00000
     15       6.8931      2.00000
     16       6.8931      2.00000
     17      13.2420      0.00000
     18      13.2420      0.00000
     19      13.2420      0.00000
     20      13.2420      0.00000
     21      15.1088      0.00000
     22      15.1088      0.00000
     23      15.1088      0.00000
     24      15.1088      0.00000
     25      15.1088      0.00000
     26      15.1088      0.00000
     27      15.1088      0.00000
     28      15.1088      0.00000
     29      17.9138      0.00000
     30      17.9138      0.00000
     31      17.9138      0.00000
     32      17.9138      0.00000
     33      23.9634      0.00000
     34      23.9634      0.00000
     35      23.9634      0.00000
     36      23.9634      0.00000
     37      25.0209      0.00000
     38      25.0209      0.00000
     39      25.0209      0.00000
     40      25.0209      0.00000
     41      25.0209      0.00000
     42      25.0209      0.00000
     43      25.0209      0.00000
     44      25.0209      0.00000
     45      28.1091      0.00000
     46      28.1091      0.00000
     47      28.1091      0.00000
     48      28.1091      0.00000


--------------------------------------------------------------------------------------------------------


 soft charge-density along one line, spin component           1
         0         1         2         3         4         5         6         7         8         9
 total charge-density along one line
 
 pseudopotential strength for first ion, spin component:           1
 18.083  25.227   0.000   0.000  -0.000   0.000   0.000  -0.000
 25.227  35.198   0.000   0.000  -0.000   0.000   0.000  -0.000
  0.000   0.000   4.123   0.000  -0.000   7.680   0.000  -0.000
  0.000   0.000   0.000   4.123   0.000   0.000   7.680   0.000
 -0.000  -0.000  -0.000   0.000   4.123  -0.000   0.000   7.680
  0.000   0.000   7.680   0.000  -0.000  14.319   0.000  -0.000
  0.000   0.000   0.000   7.680   0.000   0.000  14.319   0.000
 -0.000  -0.000  -0.000   0.000   7.680  -0.000   0.000  14.319
 total augmentation occupancy for first ion, spin component:           1
  7.884  -3.547   0.000  -0.000  -0.000   0.000   0.000   0.000
 -3.547   1.736   0.000  -0.000  -0.000   0.000   0.000   0.000
 -0.000   0.000   3.931   0.000   0.000  -1.064  -0.000  -0.000
 -0.000  -0.000   0.000   3.931   0.000  -0.000  -1.064  -0.000
 -0.000  -0.000   0.000   0.000   3.931  -0.000  -0.000  -1.064
 -0.000   0.000  -1.064  -0.000  -0.000   0.303   0.000   0.000
  0.000   0.000  -0.000  -1.064  -0.000   0.000   0.303   0.000
  0.000  -0.000  -0.000  -0.000  -1.064   0.000   0.000   0.303


------------------------ aborting loop because EDIFF is reached ----------------------------------------


    CHARGE:  cpu time    0.07: real time    0.07
    FORLOC:  cpu time    0.00: real time    0.00
    FORNL :  cpu time    0.22: real time    0.22
    STRESS:  cpu time    1.27: real time    1.27
    FORCOR:  cpu time    0.02: real time    0.02
    FORHAR:  cpu time    0.00: real time    0.00
    MIXING:  cpu time    0.00: real time    0.00
    OFIELD:  cpu time    0.00: real time    0.00

  FORCE on cell =-STRESS in cart. coord.  units (eV):
  Direction    XX          YY          ZZ          XY          YZ          ZX
  --------------------------------------------------------------------------------------
  Alpha Z    44.11680    44.11680    44.11680
  Ewald    -377.84682  -377.84682  -377.84682    -0.00000     0.00000     0.00000
  Hartree    42.70821    42.70821    42.70821    -0.00000    -0.00000    -0.00000
  E(xc)    -113.51022  -113.51022  -113.51022     0.00000    -0.00000    -0.00000
  Local     -82.30292   -82.30292   -82.30292     0.00000     0.00000    -0.00000
  n-local   135.51992   135.88023   132.85756    -0.19583    -0.12531    -0.12929
  augment   -22.93177   -22.93177   -22.93177     0.00000    -0.00000     0.00000
  Kinetic   360.91407   380.63635   383.45264    -4.96034    -5.03012    -2.79299
  Fock        0.00000     0.00000     0.00000     0.00000     0.00000     0.00000
  -------------------------------------------------------------------------------------
  Total      -0.01312    -0.01312    -0.01312    -0.00000     0.00000     0.00000
  in kB      -0.25027    -0.25027    -0.25027    -0.00000     0.00000     0.00000
  external pressure =       -0.25 kB  Pullay stress =        0.00 kB


 VOLUME and BASIS-vectors are now :
 -----------------------------------------------------------------------------
  energy-cutoff  :      520.00
  volume of cell :       84.00
      direct lattice vectors                 reciprocal lattice vectors
     4.379560000  0.000000000  0.000000000     0.228333440 -0.000000000  0.000000000
     0.000000000  4.379560000  0.000000000     0.000000000  0.228333440  0.000000000
     0.000000000  0.000000000  4.379560000    -0.000000000 -0.000000000  0.228333440

  length of vectors
     4.379560000  4.379560000  4.379560000     0.228333440  0.228333440  0.228333440


 FORCES acting on ions
    electron-ion (+dipol)            ewald-force                    non-local-force                 convergence-correction
 -----------------------------------------------------------------------------------------------
   -.300E-13 -.936E-13 -.954E-13   0.426E-13 0.249E-13 0.711E-14   -.327E-16 -.173E-16 0.156E-16   -.695E-15 -.208E-14 0.508E-14
   -.268E-13 -.210E-12 -.817E-13   0.426E-13 0.249E-13 0.711E-14   -.188E-16 0.486E-16 -.694E-17   -.596E-15 0.859E-15 0.206E-15
   -.430E-13 -.215E-12 0.107E-12   0.462E-13 0.249E-13 0.711E-14   -.465E-16 -.208E-16 0.208E-16   -.239E-14 -.206E-14 -.988E-16
   -.333E-13 -.161E-13 0.135E-12   0.462E-13 0.249E-13 0.711E-14   -.396E-16 0.382E-16 0.226E-16   -.250E-14 0.105E-14 0.512E-14
   0.634E-14 0.288E-14 0.295E-14   -.423E-13 -.245E-13 -.748E-14   -.909E-17 -.781E-17 0.867E-17   -.820E-14 -.195E-15 -.226E-14
   0.654E-14 0.374E-13 0.350E-13   -.422E-13 -.247E-13 -.651E-14   0.452E-18 -.278E-16 0.130E-16   -.754E-14 0.122E-14 -.142E-14
   0.357E-13 0.248E-14 0.958E-12   -.468E-13 -.252E-13 -.649E-14   -.308E-16 -.312E-16 0.260E-17   0.779E-14 -.692E-15 -.110E-14
   0.391E-13 0.456E-12 0.326E-12   -.467E-13 -.254E-13 -.755E-14   0.221E-16 -.286E-16 0.000E+00   0.819E-14 0.960E-15 -.231E-14
 -----------------------------------------------------------------------------------------------
   -.454E-13 -.366E-13 0.139E-11   -.323E-15 -.303E-15 0.388E-15   -.155E-15 -.468E-16 0.763E-16   -.595E-14 -.943E-15 0.322E-14
 
 
 POSITION                                       TOTAL-FORCE (eV/Angst)
 -----------------------------------------------------------------------------------
      1.09489      1.09489      3.28467        -0.000000     -0.000000     -0.000000
      1.09489      3.28467      1.09489        -0.000000     -0.000000     -0.000000
      3.28467      1.09489      1.09489        -0.000000      0.000000     -0.000000
      3.28467      3.28467      3.28467        -0.000000      0.000000     -0.000000
      0.00000      0.00000      0.00000         0.000000     -0.000000      0.000000
      0.00000      2.18978      2.18978         0.000000     -0.000000      0.000000
      2.18978      0.00000      2.18978         0.000000      0.000000      0.000000
      2.18978      2.18978      0.00000         0.000000      0.000000     -0.000000
 -----------------------------------------------------------------------------------
    total drift:                               -0.000000     -0.000000      0.000000


--------------------------------------------------------------------------------------------------------



  FREE ENERGIE OF THE ION-ELECTRON SYSTEM (eV)
  ---------------------------------------------------
  free  energy   TOTEN  =       -60.24396374 eV

  energy  without entropy=      -60.24396374  energy(sigma->0) =      -60.24396374
 


--------------------------------------------------------------------------------------------------------


    POTLOK:  cpu time    0.04: real time    0.04


--------------------------------------------------------------------------------------------------------


 writing wavefunctions
     LOOP+:  cpu time   31.55: real time   31.96
    4ORBIT:  cpu time    0.00: real time    0.00

 total amount of memory used by VASP on root node    45842. kBytes
========================================================================

   base      :      30000. kBytes
   nonl-proj :      10616. kBytes
   fftplans  :       1379. kBytes
   grid      :       2479. kBytes
   one-center:         24. kBytes
   wavefun   :       1344. kBytes
 
  
  
 General timing and accounting informations for this job:
 ========================================================
  
                  Total CPU time used (sec):       33.713
                            User time (sec):       33.007
                          System time (sec):        0.706
                         Elapsed time (sec):       34.859
  
                   Maximum memory used (kb):      112064.
                   Average memory used (kb):           0.
  
                          Minor page faults:        89325
                          Major page faults:            9
                 Voluntary context switches:         5142
