unknown system                          
           1
     4.379560    0.000000    0.000000
     0.000000    4.379560    0.000000
     0.000000    0.000000    4.379560
   Si   C 
   4   4
Direct configuration=     1
   0.25000000  0.25000000  0.75000000
   0.25000000  0.75000000  0.25000000
   0.75000000  0.25000000  0.25000000
   0.75000000  0.75000000  0.75000000
   0.00000000  0.00000000  0.00000000
   0.00000000  0.50000000  0.50000000
   0.50000000  0.00000000  0.50000000
   0.50000000  0.50000000  0.00000000
