   2   2   1   0
  0.1050029E+02  0.3096817E-09  0.3096817E-09  0.3096817E-09  0.5000000E-15
  1.000000000000000E-004
  CAR 
 unknown system                          
    100.03235526    -14.54992510 1000      8.16724497      1.00000000
    -14.550  0.0000E+00  0.0000E+00
    -14.435  0.0000E+00  0.0000E+00
    -14.321  0.0000E+00  0.0000E+00
    -14.206  0.0000E+00  0.0000E+00
    -14.091  0.0000E+00  0.0000E+00
    -13.976  0.0000E+00  0.0000E+00
    -13.862  0.0000E+00  0.0000E+00
    -13.747  0.0000E+00  0.0000E+00
    -13.632  0.0000E+00  0.0000E+00
    -13.518  0.0000E+00  0.0000E+00
    -13.403  0.0000E+00  0.0000E+00
    -13.288  0.0000E+00  0.0000E+00
    -13.174  0.0000E+00  0.0000E+00
    -13.059  0.0000E+00  0.0000E+00
    -12.944  0.0000E+00  0.0000E+00
    -12.829  0.0000E+00  0.0000E+00
    -12.715  0.0000E+00  0.0000E+00
    -12.600  0.0000E+00  0.0000E+00
    -12.485  0.0000E+00  0.0000E+00
    -12.371  0.0000E+00  0.0000E+00
    -12.256  0.0000E+00  0.0000E+00
    -12.141  0.0000E+00  0.0000E+00
    -12.027  0.0000E+00  0.0000E+00
    -11.912  0.0000E+00  0.0000E+00
    -11.797  0.0000E+00  0.0000E+00
    -11.683  0.0000E+00  0.0000E+00
    -11.568  0.0000E+00  0.0000E+00
    -11.453  0.0000E+00  0.0000E+00
    -11.338  0.0000E+00  0.0000E+00
    -11.224  0.0000E+00  0.0000E+00
    -11.109  0.0000E+00  0.0000E+00
    -10.994  0.0000E+00  0.0000E+00
    -10.880  0.0000E+00  0.0000E+00
    -10.765  0.0000E+00  0.0000E+00
    -10.650  0.0000E+00  0.0000E+00
    -10.536  0.0000E+00  0.0000E+00
    -10.421  0.0000E+00  0.0000E+00
    -10.306  0.0000E+00  0.0000E+00
    -10.191  0.0000E+00  0.0000E+00
    -10.077  0.0000E+00  0.0000E+00
     -9.962  0.0000E+00  0.0000E+00
     -9.847  0.0000E+00  0.0000E+00
     -9.733  0.0000E+00  0.0000E+00
     -9.618  0.4743E-16  0.5440E-17
     -9.503  0.4227E-07  0.4848E-08
     -9.389  0.1608E-02  0.1845E-03
     -9.274  0.1535E-01  0.1945E-02
     -9.159  0.4964E-01  0.7639E-02
     -9.044  0.3308E+00  0.4558E-01
     -8.930  0.7340E-01  0.5400E-01
     -8.815  0.6134E-01  0.6103E-01
     -8.700  0.3513E+00  0.1013E+00
     -8.586  0.2741E+00  0.1328E+00
     -8.471  0.7623E+00  0.2202E+00
     -8.356  0.5058E-01  0.2260E+00
     -8.242  0.5973E-01  0.2329E+00
     -8.127  0.1498E+00  0.2500E+00
     -8.012  0.5261E+00  0.3104E+00
     -7.898  0.1087E+01  0.4351E+00
     -7.783  0.6232E-01  0.4423E+00
     -7.668  0.5659E+00  0.5072E+00
     -7.553  0.2894E+00  0.5404E+00
     -7.439  0.9102E+00  0.6448E+00
     -7.324  0.1502E+00  0.6620E+00
     -7.209  0.2515E-01  0.6649E+00
     -7.095  0.3744E+00  0.7078E+00
     -6.980  0.5058E+00  0.7658E+00
     -6.865  0.2058E+01  0.1002E+01
     -6.751  0.1755E+00  0.1022E+01
     -6.636  0.2776E+00  0.1054E+01
     -6.521  0.7197E+00  0.1136E+01
     -6.406  0.9132E+00  0.1241E+01
     -6.292  0.6135E+00  0.1311E+01
     -6.177  0.2209E+00  0.1337E+01
     -6.062  0.2081E-01  0.1339E+01
     -5.948  0.6188E+00  0.1410E+01
     -5.833  0.1037E+01  0.1529E+01
     -5.718  0.6704E+00  0.1606E+01
     -5.604  0.5874E+00  0.1673E+01
     -5.489  0.4614E+00  0.1726E+01
     -5.374  0.6508E+00  0.1801E+01
     -5.259  0.1299E+00  0.1816E+01
     -5.145  0.3761E+00  0.1859E+01
     -5.030  0.1345E+00  0.1874E+01
     -4.915  0.3366E+00  0.1913E+01
     -4.801  0.2358E+00  0.1940E+01
     -4.686  0.1562E+00  0.1958E+01
     -4.571  0.1819E-03  0.1958E+01
     -4.457  0.4974E-10  0.1958E+01
     -4.342  0.3100E-03  0.1958E+01
     -4.227  0.1754E+00  0.1978E+01
     -4.113  0.1381E+00  0.1994E+01
     -3.998  0.1328E-03  0.1994E+01
     -3.883  0.2485E-01  0.1997E+01
     -3.768  0.2740E-01  0.2000E+01
     -3.654  0.3816E-04  0.2000E+01
     -3.539  0.3408E-11  0.2000E+01
     -3.424  0.0000E+00  0.2000E+01
     -3.310  0.0000E+00  0.2000E+01
     -3.195  0.0000E+00  0.2000E+01
     -3.080  0.0000E+00  0.2000E+01
     -2.966  0.0000E+00  0.2000E+01
     -2.851  0.0000E+00  0.2000E+01
     -2.736  0.0000E+00  0.2000E+01
     -2.621  0.0000E+00  0.2000E+01
     -2.507  0.0000E+00  0.2000E+01
     -2.392  0.0000E+00  0.2000E+01
     -2.277  0.0000E+00  0.2000E+01
     -2.163  0.0000E+00  0.2000E+01
     -2.048  0.1889E-08  0.2000E+01
     -1.933  0.9873E-03  0.2000E+01
     -1.819  0.5854E-01  0.2007E+01
     -1.704  0.1023E-01  0.2008E+01
     -1.589  0.1815E-01  0.2010E+01
     -1.474  0.2808E+00  0.2042E+01
     -1.360  0.1487E-01  0.2044E+01
     -1.245  0.1202E-03  0.2044E+01
     -1.130  0.1760E+00  0.2064E+01
     -1.016  0.2491E+00  0.2093E+01
     -0.901  0.4477E-01  0.2098E+01
     -0.786  0.5191E-02  0.2099E+01
     -0.672  0.4295E+00  0.2148E+01
     -0.557  0.1249E+00  0.2162E+01
     -0.442  0.2082E+00  0.2186E+01
     -0.327  0.1688E+00  0.2205E+01
     -0.213  0.7439E+00  0.2291E+01
     -0.098  0.2924E-01  0.2294E+01
      0.017  0.1202E+00  0.2308E+01
      0.131  0.5435E+00  0.2370E+01
      0.246  0.4861E+00  0.2426E+01
      0.361  0.1045E+00  0.2438E+01
      0.475  0.5992E+00  0.2507E+01
      0.590  0.8947E+00  0.2609E+01
      0.705  0.2856E+00  0.2642E+01
      0.819  0.1818E-01  0.2644E+01
      0.934  0.7818E+00  0.2734E+01
      1.049  0.4662E+00  0.2787E+01
      1.164  0.7313E+00  0.2871E+01
      1.278  0.9523E-01  0.2882E+01
      1.393  0.2588E+00  0.2912E+01
      1.508  0.5768E+00  0.2978E+01
      1.622  0.1844E+00  0.2999E+01
      1.737  0.1742E+00  0.3019E+01
      1.852  0.1494E+01  0.3190E+01
      1.966  0.6710E-01  0.3198E+01
      2.081  0.1508E+00  0.3215E+01
      2.196  0.7144E+00  0.3297E+01
      2.311  0.3778E+00  0.3341E+01
      2.425  0.1894E-01  0.3343E+01
      2.540  0.6596E+00  0.3418E+01
      2.655  0.1708E+00  0.3438E+01
      2.769  0.1307E-01  0.3439E+01
      2.884  0.2306E+00  0.3466E+01
      2.999  0.6013E+00  0.3535E+01
      3.113  0.9675E-01  0.3546E+01
      3.228  0.2444E+00  0.3574E+01
      3.343  0.1310E+01  0.3724E+01
      3.458  0.1372E+01  0.3882E+01
      3.572  0.4722E+00  0.3936E+01
      3.687  0.2739E+00  0.3967E+01
      3.802  0.7022E+00  0.4048E+01
      3.916  0.1240E+00  0.4062E+01
      4.031  0.2113E+00  0.4086E+01
      4.146  0.9450E+00  0.4195E+01
      4.260  0.1450E+01  0.4361E+01
      4.375  0.1995E+01  0.4590E+01
      4.490  0.1420E+00  0.4606E+01
      4.604  0.4875E+00  0.4662E+01
      4.719  0.1853E+01  0.4874E+01
      4.834  0.7820E+00  0.4964E+01
      4.949  0.1724E+01  0.5162E+01
      5.063  0.9989E+00  0.5277E+01
      5.178  0.1174E+00  0.5290E+01
      5.293  0.1309E-01  0.5291E+01
      5.407  0.1710E+01  0.5488E+01
      5.522  0.2802E+01  0.5809E+01
      5.637  0.8200E+00  0.5903E+01
      5.751  0.1028E+01  0.6021E+01
      5.866  0.9183E+00  0.6126E+01
      5.981  0.1140E+01  0.6257E+01
      6.096  0.1188E+01  0.6393E+01
      6.210  0.9559E+00  0.6503E+01
      6.325  0.1185E+01  0.6639E+01
      6.440  0.2836E+00  0.6671E+01
      6.554  0.2527E+01  0.6961E+01
      6.669  0.1215E+01  0.7101E+01
      6.784  0.1732E+01  0.7299E+01
      6.898  0.2418E+00  0.7327E+01
      7.013  0.1402E+01  0.7488E+01
      7.128  0.1183E+01  0.7624E+01
      7.243  0.1049E+01  0.7744E+01
      7.357  0.2819E+00  0.7776E+01
      7.472  0.5200E+00  0.7836E+01
      7.587  0.7243E+00  0.7919E+01
      7.701  0.5019E-01  0.7925E+01
      7.816  0.5408E+00  0.7987E+01
      7.931  0.1117E+00  0.8000E+01
      8.045  0.3210E-02  0.8000E+01
      8.160  0.2941E-06  0.8000E+01
      8.275  0.1272E-14  0.8000E+01
      8.389  0.0000E+00  0.8000E+01
      8.504  0.0000E+00  0.8000E+01
      8.619  0.0000E+00  0.8000E+01
      8.734  0.0000E+00  0.8000E+01
      8.848  0.0000E+00  0.8000E+01
      8.963  0.0000E+00  0.8000E+01
      9.078  0.0000E+00  0.8000E+01
      9.192  0.0000E+00  0.8000E+01
      9.307  0.0000E+00  0.8000E+01
      9.422  0.1622E-13  0.8000E+01
      9.536  0.2028E-05  0.8000E+01
      9.651  0.1253E-01  0.8001E+01
      9.766  0.3949E-01  0.8006E+01
      9.881  0.2930E-03  0.8006E+01
      9.995  0.4533E-06  0.8006E+01
     10.110  0.1850E-01  0.8008E+01
     10.225  0.1848E+00  0.8029E+01
     10.339  0.1436E+00  0.8046E+01
     10.454  0.1760E+00  0.8066E+01
     10.569  0.3156E-03  0.8066E+01
     10.683  0.3784E-10  0.8066E+01
     10.798  0.0000E+00  0.8066E+01
     10.913  0.0000E+00  0.8066E+01
     11.028  0.1613E-08  0.8066E+01
     11.142  0.3404E-02  0.8066E+01
     11.257  0.6268E+00  0.8138E+01
     11.372  0.6048E+00  0.8208E+01
     11.486  0.8718E-01  0.8218E+01
     11.601  0.4470E+00  0.8269E+01
     11.716  0.9409E-02  0.8270E+01
     11.830  0.2526E-07  0.8270E+01
     11.945  0.0000E+00  0.8270E+01
     12.060  0.0000E+00  0.8270E+01
     12.174  0.0000E+00  0.8270E+01
     12.289  0.1890E-11  0.8270E+01
     12.404  0.9918E-04  0.8270E+01
     12.519  0.2786E+00  0.8302E+01
     12.633  0.5565E+00  0.8366E+01
     12.748  0.6236E+00  0.8437E+01
     12.863  0.1609E+01  0.8622E+01
     12.977  0.6457E+00  0.8696E+01
     13.092  0.1478E+00  0.8713E+01
     13.207  0.6192E-01  0.8720E+01
     13.321  0.3005E-01  0.8723E+01
     13.436  0.1929E+00  0.8746E+01
     13.551  0.2840E+00  0.8778E+01
     13.666  0.1615E-01  0.8780E+01
     13.780  0.1708E-06  0.8780E+01
     13.895  0.1504E-03  0.8780E+01
     14.010  0.1316E+00  0.8795E+01
     14.124  0.2287E+01  0.9057E+01
     14.239  0.3568E+01  0.9467E+01
     14.354  0.1767E+01  0.9669E+01
     14.468  0.8229E+00  0.9764E+01
     14.583  0.4389E+00  0.9814E+01
     14.698  0.4529E+00  0.9866E+01
     14.813  0.8660E+00  0.9965E+01
     14.927  0.2806E+00  0.9998E+01
     15.042  0.1539E+00  0.1002E+02
     15.157  0.1063E+01  0.1014E+02
     15.271  0.1245E+01  0.1028E+02
     15.386  0.4637E+00  0.1033E+02
     15.501  0.7209E+00  0.1042E+02
     15.615  0.6754E+00  0.1049E+02
     15.730  0.6165E+00  0.1056E+02
     15.845  0.8348E+00  0.1066E+02
     15.959  0.1713E+01  0.1086E+02
     16.074  0.1218E+01  0.1100E+02
     16.189  0.2615E+01  0.1130E+02
     16.304  0.1684E+01  0.1149E+02
     16.418  0.3348E+01  0.1187E+02
     16.533  0.3176E+01  0.1224E+02
     16.648  0.1241E+01  0.1238E+02
     16.762  0.5141E+00  0.1244E+02
     16.877  0.1392E-01  0.1244E+02
     16.992  0.4638E+00  0.1249E+02
     17.106  0.1474E+01  0.1266E+02
     17.221  0.1924E+00  0.1268E+02
     17.336  0.1950E+01  0.1291E+02
     17.451  0.2619E+01  0.1321E+02
     17.565  0.1209E+01  0.1335E+02
     17.680  0.6825E+00  0.1343E+02
     17.795  0.7383E+00  0.1351E+02
     17.909  0.5330E+00  0.1357E+02
     18.024  0.1565E+01  0.1375E+02
     18.139  0.1207E+01  0.1389E+02
     18.253  0.5237E+00  0.1395E+02
     18.368  0.1965E+01  0.1417E+02
     18.483  0.1205E+01  0.1431E+02
     18.598  0.1197E+01  0.1445E+02
     18.712  0.6965E+00  0.1453E+02
     18.827  0.1037E+00  0.1454E+02
     18.942  0.1068E+01  0.1466E+02
     19.056  0.1693E+01  0.1486E+02
     19.171  0.1294E+01  0.1501E+02
     19.286  0.9756E+00  0.1512E+02
     19.400  0.1496E+00  0.1514E+02
     19.515  0.1591E+00  0.1515E+02
     19.630  0.2666E+00  0.1518E+02
     19.744  0.7389E+00  0.1527E+02
     19.859  0.1954E+00  0.1529E+02
     19.974  0.2750E-04  0.1529E+02
     20.089  0.2004E-01  0.1529E+02
     20.203  0.8032E+00  0.1539E+02
     20.318  0.1068E+01  0.1551E+02
     20.433  0.7518E+00  0.1560E+02
     20.547  0.2171E+01  0.1584E+02
     20.662  0.1219E+01  0.1598E+02
     20.777  0.8801E+00  0.1608E+02
     20.891  0.5650E+00  0.1615E+02
     21.006  0.6081E+00  0.1622E+02
     21.121  0.3859E+00  0.1626E+02
     21.236  0.1443E+01  0.1643E+02
     21.350  0.1325E+00  0.1644E+02
     21.465  0.1091E+01  0.1657E+02
     21.580  0.1092E+01  0.1669E+02
     21.694  0.5968E+00  0.1676E+02
     21.809  0.8304E+00  0.1686E+02
     21.924  0.4110E+00  0.1691E+02
     22.038  0.1247E+00  0.1692E+02
     22.153  0.7174E+00  0.1700E+02
     22.268  0.5332E-01  0.1701E+02
     22.383  0.1581E+01  0.1719E+02
     22.497  0.1122E+01  0.1732E+02
     22.612  0.2133E+01  0.1756E+02
     22.727  0.4964E+00  0.1762E+02
     22.841  0.2689E+00  0.1765E+02
     22.956  0.1647E+01  0.1784E+02
     23.071  0.9017E+00  0.1794E+02
     23.185  0.8568E-02  0.1794E+02
     23.300  0.3989E+00  0.1799E+02
     23.415  0.1303E+01  0.1814E+02
     23.529  0.2135E+00  0.1816E+02
     23.644  0.7025E-02  0.1816E+02
     23.759  0.4579E+00  0.1822E+02
     23.874  0.2306E+01  0.1848E+02
     23.988  0.8223E+00  0.1858E+02
     24.103  0.3742E+00  0.1862E+02
     24.218  0.3012E+00  0.1865E+02
     24.332  0.4823E-01  0.1866E+02
     24.447  0.5843E+00  0.1873E+02
     24.562  0.6359E+00  0.1880E+02
     24.676  0.8323E+00  0.1889E+02
     24.791  0.1426E+00  0.1891E+02
     24.906  0.1185E+01  0.1905E+02
     25.021  0.1015E+01  0.1916E+02
     25.135  0.1364E+01  0.1932E+02
     25.250  0.5186E+00  0.1938E+02
     25.365  0.2637E-01  0.1938E+02
     25.479  0.1493E+01  0.1955E+02
     25.594  0.1160E+01  0.1969E+02
     25.709  0.1178E+01  0.1982E+02
     25.823  0.3448E+00  0.1986E+02
     25.938  0.6679E+00  0.1994E+02
     26.053  0.1906E+00  0.1996E+02
     26.168  0.1288E+01  0.2011E+02
     26.282  0.7274E+00  0.2019E+02
     26.397  0.6760E+00  0.2027E+02
     26.512  0.1935E+01  0.2049E+02
     26.626  0.5411E+00  0.2055E+02
     26.741  0.3590E+00  0.2059E+02
     26.856  0.6552E-01  0.2060E+02
     26.970  0.6260E+00  0.2067E+02
     27.085  0.5352E-01  0.2068E+02
     27.200  0.6840E+00  0.2076E+02
     27.314  0.1701E+01  0.2095E+02
     27.429  0.1299E+01  0.2110E+02
     27.544  0.1024E+01  0.2122E+02
     27.659  0.7275E+00  0.2130E+02
     27.773  0.6944E+00  0.2138E+02
     27.888  0.9332E+00  0.2149E+02
     28.003  0.1471E+01  0.2166E+02
     28.117  0.1080E+01  0.2178E+02
     28.232  0.9638E+00  0.2189E+02
     28.347  0.5705E+00  0.2196E+02
     28.461  0.4969E-02  0.2196E+02
     28.576  0.1670E+00  0.2198E+02
     28.691  0.1240E+01  0.2212E+02
     28.806  0.2268E+00  0.2215E+02
     28.920  0.7501E-01  0.2215E+02
     29.035  0.6416E-01  0.2216E+02
     29.150  0.1095E+01  0.2229E+02
     29.264  0.1495E+00  0.2230E+02
     29.379  0.8605E+00  0.2240E+02
     29.494  0.8580E+00  0.2250E+02
     29.608  0.9802E-01  0.2251E+02
     29.723  0.3337E+00  0.2255E+02
     29.838  0.2008E+00  0.2257E+02
     29.953  0.8094E+00  0.2267E+02
     30.067  0.2061E+01  0.2290E+02
     30.182  0.5106E+00  0.2296E+02
     30.297  0.1738E+01  0.2316E+02
     30.411  0.2631E+01  0.2346E+02
     30.526  0.1133E+01  0.2359E+02
     30.641  0.2579E+01  0.2389E+02
     30.755  0.2638E+01  0.2419E+02
     30.870  0.9104E+00  0.2430E+02
     30.985  0.1544E+01  0.2447E+02
     31.099  0.7078E+00  0.2455E+02
     31.214  0.1112E+01  0.2468E+02
     31.329  0.3681E+00  0.2472E+02
     31.444  0.2601E+00  0.2475E+02
     31.558  0.8817E+00  0.2485E+02
     31.673  0.1582E+01  0.2504E+02
     31.788  0.5952E+00  0.2510E+02
     31.902  0.4229E+00  0.2515E+02
     32.017  0.1033E+01  0.2527E+02
     32.132  0.7637E+00  0.2536E+02
     32.246  0.5012E-01  0.2536E+02
     32.361  0.9075E+00  0.2547E+02
     32.476  0.3472E+01  0.2587E+02
     32.591  0.2786E+01  0.2619E+02
     32.705  0.9775E+00  0.2630E+02
     32.820  0.5765E+00  0.2636E+02
     32.935  0.1304E+01  0.2651E+02
     33.049  0.7738E+00  0.2660E+02
     33.164  0.9219E+00  0.2671E+02
     33.279  0.5601E+00  0.2677E+02
     33.393  0.1374E+01  0.2693E+02
     33.508  0.1445E-01  0.2693E+02
     33.623  0.1927E-05  0.2693E+02
     33.738  0.1229E-01  0.2693E+02
     33.852  0.7935E-01  0.2694E+02
     33.967  0.6459E+00  0.2702E+02
     34.082  0.1509E+01  0.2719E+02
     34.196  0.1525E+01  0.2736E+02
     34.311  0.1473E+01  0.2753E+02
     34.426  0.1554E+00  0.2755E+02
     34.540  0.7084E+00  0.2763E+02
     34.655  0.2393E-01  0.2764E+02
     34.770  0.6969E+00  0.2772E+02
     34.884  0.1887E+00  0.2774E+02
     34.999  0.3562E+00  0.2778E+02
     35.114  0.1231E+01  0.2792E+02
     35.229  0.2570E+01  0.2821E+02
     35.343  0.2304E+01  0.2848E+02
     35.458  0.2798E+00  0.2851E+02
     35.573  0.1590E+00  0.2853E+02
     35.687  0.7877E+00  0.2862E+02
     35.802  0.1280E+01  0.2877E+02
     35.917  0.1166E+01  0.2890E+02
     36.031  0.2144E+01  0.2915E+02
     36.146  0.7336E+00  0.2923E+02
     36.261  0.2137E+01  0.2947E+02
     36.376  0.8032E+00  0.2957E+02
     36.490  0.5595E+00  0.2963E+02
     36.605  0.6751E+00  0.2971E+02
     36.720  0.1340E+01  0.2986E+02
     36.834  0.4928E+00  0.2992E+02
     36.949  0.9161E+00  0.3002E+02
     37.064  0.7539E+00  0.3011E+02
     37.178  0.1742E+00  0.3013E+02
     37.293  0.8718E+00  0.3023E+02
     37.408  0.2806E+00  0.3026E+02
     37.523  0.1056E+01  0.3038E+02
     37.637  0.5275E+00  0.3044E+02
     37.752  0.2667E+00  0.3047E+02
     37.867  0.1090E+00  0.3049E+02
     37.981  0.1593E+01  0.3067E+02
     38.096  0.1890E+01  0.3089E+02
     38.211  0.5859E+00  0.3095E+02
     38.325  0.3904E+00  0.3100E+02
     38.440  0.3516E+00  0.3104E+02
     38.555  0.2191E+00  0.3106E+02
     38.669  0.7854E+00  0.3115E+02
     38.784  0.1617E+01  0.3134E+02
     38.899  0.1078E+01  0.3146E+02
     39.014  0.1146E+01  0.3159E+02
     39.128  0.1149E+01  0.3173E+02
     39.243  0.7301E+00  0.3181E+02
     39.358  0.7905E+00  0.3190E+02
     39.472  0.1574E+01  0.3208E+02
     39.587  0.5987E+00  0.3215E+02
     39.702  0.8027E+00  0.3224E+02
     39.816  0.7080E+00  0.3232E+02
     39.931  0.4318E+00  0.3237E+02
     40.046  0.2400E+00  0.3240E+02
     40.161  0.3746E-01  0.3240E+02
     40.275  0.1679E+01  0.3260E+02
     40.390  0.9165E+00  0.3270E+02
     40.505  0.1674E+01  0.3289E+02
     40.619  0.6207E+00  0.3296E+02
     40.734  0.9629E+00  0.3308E+02
     40.849  0.1501E+01  0.3325E+02
     40.963  0.3029E+01  0.3360E+02
     41.078  0.6698E+00  0.3367E+02
     41.193  0.6235E+00  0.3374E+02
     41.308  0.6564E+00  0.3382E+02
     41.422  0.3400E-01  0.3382E+02
     41.537  0.3770E+00  0.3387E+02
     41.652  0.1348E+01  0.3402E+02
     41.766  0.1152E+01  0.3415E+02
     41.881  0.3306E+00  0.3419E+02
     41.996  0.1740E+00  0.3421E+02
     42.110  0.1318E+01  0.3436E+02
     42.225  0.6460E+00  0.3444E+02
     42.340  0.1452E+01  0.3460E+02
     42.454  0.7414E+00  0.3469E+02
     42.569  0.1992E+01  0.3492E+02
     42.684  0.2575E+01  0.3521E+02
     42.799  0.4031E+00  0.3526E+02
     42.913  0.8753E+00  0.3536E+02
     43.028  0.1588E+01  0.3554E+02
     43.143  0.1300E+00  0.3555E+02
     43.257  0.1084E+01  0.3568E+02
     43.372  0.1549E+01  0.3586E+02
     43.487  0.1538E+01  0.3603E+02
     43.601  0.6662E+00  0.3611E+02
     43.716  0.2193E-01  0.3611E+02
     43.831  0.2240E+00  0.3614E+02
     43.946  0.7698E+00  0.3623E+02
     44.060  0.1538E+01  0.3640E+02
     44.175  0.6208E+00  0.3647E+02
     44.290  0.1415E-02  0.3647E+02
     44.404  0.4047E-09  0.3647E+02
     44.519  0.1386E-02  0.3647E+02
     44.634  0.9132E+00  0.3658E+02
     44.748  0.1475E+01  0.3675E+02
     44.863  0.2953E+00  0.3678E+02
     44.978  0.1732E+01  0.3698E+02
     45.093  0.5450E+00  0.3704E+02
     45.207  0.7846E+00  0.3713E+02
     45.322  0.5812E+00  0.3720E+02
     45.437  0.1856E+01  0.3741E+02
     45.551  0.7829E+00  0.3750E+02
     45.666  0.7729E+00  0.3759E+02
     45.781  0.1469E+01  0.3776E+02
     45.895  0.2740E+01  0.3807E+02
     46.010  0.2290E+01  0.3834E+02
     46.125  0.2021E+01  0.3857E+02
     46.239  0.4304E+00  0.3862E+02
     46.354  0.2239E+01  0.3887E+02
     46.469  0.1251E+01  0.3902E+02
     46.584  0.2350E+01  0.3929E+02
     46.698  0.9114E+00  0.3939E+02
     46.813  0.9496E-02  0.3939E+02
     46.928  0.1868E+00  0.3941E+02
     47.042  0.1416E+00  0.3943E+02
     47.157  0.2826E+01  0.3975E+02
     47.272  0.1311E+01  0.3991E+02
     47.386  0.3846E+00  0.3995E+02
     47.501  0.4760E-01  0.3995E+02
     47.616  0.7371E+00  0.4004E+02
     47.731  0.1386E+01  0.4020E+02
     47.845  0.8543E+00  0.4030E+02
     47.960  0.6589E+00  0.4037E+02
     48.075  0.3426E+00  0.4041E+02
     48.189  0.1518E+00  0.4043E+02
     48.304  0.1688E+00  0.4045E+02
     48.419  0.3635E-02  0.4045E+02
     48.533  0.3621E+00  0.4049E+02
     48.648  0.1762E+01  0.4069E+02
     48.763  0.4948E+00  0.4075E+02
     48.878  0.6058E+00  0.4082E+02
     48.992  0.2726E+01  0.4113E+02
     49.107  0.7717E+00  0.4122E+02
     49.222  0.1258E+01  0.4136E+02
     49.336  0.1363E+01  0.4152E+02
     49.451  0.6404E+00  0.4159E+02
     49.566  0.1727E+01  0.4179E+02
     49.680  0.7660E-01  0.4180E+02
     49.795  0.3753E+00  0.4184E+02
     49.910  0.8393E+00  0.4194E+02
     50.024  0.2371E+00  0.4197E+02
     50.139  0.7785E+00  0.4206E+02
     50.254  0.1080E+01  0.4218E+02
     50.369  0.6630E+00  0.4226E+02
     50.483  0.3327E+01  0.4264E+02
     50.598  0.7453E+00  0.4272E+02
     50.713  0.8078E+00  0.4282E+02
     50.827  0.3428E+00  0.4286E+02
     50.942  0.7271E+00  0.4294E+02
     51.057  0.1533E+01  0.4311E+02
     51.171  0.1349E+01  0.4327E+02
     51.286  0.1946E+01  0.4349E+02
     51.401  0.1051E+01  0.4361E+02
     51.516  0.9844E+00  0.4373E+02
     51.630  0.7992E+00  0.4382E+02
     51.745  0.2630E+01  0.4412E+02
     51.860  0.2004E+01  0.4435E+02
     51.974  0.4882E+00  0.4440E+02
     52.089  0.4349E+00  0.4445E+02
     52.204  0.1669E+01  0.4465E+02
     52.318  0.1978E+01  0.4487E+02
     52.433  0.4516E+00  0.4492E+02
     52.548  0.9749E+00  0.4504E+02
     52.663  0.2962E+01  0.4538E+02
     52.777  0.8963E+00  0.4548E+02
     52.892  0.1222E+01  0.4562E+02
     53.007  0.1977E+01  0.4585E+02
     53.121  0.4070E+00  0.4589E+02
     53.236  0.1520E+00  0.4591E+02
     53.351  0.4719E+00  0.4596E+02
     53.465  0.9245E+00  0.4607E+02
     53.580  0.1193E+01  0.4621E+02
     53.695  0.9527E+00  0.4632E+02
     53.809  0.6866E+00  0.4640E+02
     53.924  0.1501E+01  0.4657E+02
     54.039  0.8971E+00  0.4667E+02
     54.154  0.9047E+00  0.4677E+02
     54.268  0.4447E+00  0.4683E+02
     54.383  0.3782E+00  0.4687E+02
     54.498  0.6572E+00  0.4694E+02
     54.612  0.3390E+00  0.4698E+02
     54.727  0.7396E+00  0.4707E+02
     54.842  0.4409E+00  0.4712E+02
     54.956  0.4947E+00  0.4717E+02
     55.071  0.1030E+01  0.4729E+02
     55.186  0.1963E+01  0.4752E+02
     55.301  0.1428E+01  0.4768E+02
     55.415  0.8420E+00  0.4778E+02
     55.530  0.2574E+00  0.4781E+02
     55.645  0.3526E-01  0.4781E+02
     55.759  0.5784E+00  0.4788E+02
     55.874  0.1242E+00  0.4789E+02
     55.989  0.8756E+00  0.4799E+02
     56.103  0.1718E+01  0.4819E+02
     56.218  0.7346E+00  0.4827E+02
     56.333  0.1831E-01  0.4828E+02
     56.448  0.6512E+00  0.4835E+02
     56.562  0.4767E+00  0.4841E+02
     56.677  0.1456E+01  0.4857E+02
     56.792  0.2257E+01  0.4883E+02
     56.906  0.1141E+01  0.4896E+02
     57.021  0.9016E-01  0.4897E+02
     57.136  0.2157E+00  0.4900E+02
     57.250  0.7298E+00  0.4908E+02
     57.365  0.3603E+00  0.4912E+02
     57.480  0.1208E+01  0.4926E+02
     57.594  0.8004E+00  0.4935E+02
     57.709  0.1043E+01  0.4947E+02
     57.824  0.3658E+00  0.4951E+02
     57.939  0.5543E+00  0.4958E+02
     58.053  0.2902E+00  0.4961E+02
     58.168  0.1056E+01  0.4973E+02
     58.283  0.7983E+00  0.4982E+02
     58.397  0.9761E+00  0.4994E+02
     58.512  0.6814E-01  0.4994E+02
     58.627  0.5339E-04  0.4994E+02
     58.741  0.2930E+00  0.4998E+02
     58.856  0.1518E+01  0.5015E+02
     58.971  0.1392E+01  0.5031E+02
     59.086  0.8159E+00  0.5040E+02
     59.200  0.1151E+01  0.5054E+02
     59.315  0.7398E+00  0.5062E+02
     59.430  0.3773E+00  0.5067E+02
     59.544  0.1128E+01  0.5079E+02
     59.659  0.2027E+01  0.5103E+02
     59.774  0.1793E+01  0.5123E+02
     59.888  0.1673E+01  0.5142E+02
     60.003  0.3083E-01  0.5143E+02
     60.118  0.8369E-07  0.5143E+02
     60.233  0.5805E-02  0.5143E+02
     60.347  0.1191E+01  0.5157E+02
     60.462  0.1958E+01  0.5179E+02
     60.577  0.1659E+01  0.5198E+02
     60.691  0.1702E+01  0.5218E+02
     60.806  0.1129E+01  0.5230E+02
     60.921  0.1288E+01  0.5245E+02
     61.035  0.1348E+01  0.5261E+02
     61.150  0.3678E+00  0.5265E+02
     61.265  0.1038E+01  0.5277E+02
     61.379  0.1287E+01  0.5292E+02
     61.494  0.1123E+00  0.5293E+02
     61.609  0.3648E+00  0.5297E+02
     61.724  0.1591E+01  0.5315E+02
     61.838  0.2876E+01  0.5348E+02
     61.953  0.9406E+00  0.5359E+02
     62.068  0.8094E-02  0.5359E+02
     62.182  0.8336E+00  0.5369E+02
     62.297  0.2395E+01  0.5396E+02
     62.412  0.2155E+01  0.5421E+02
     62.526  0.1252E+01  0.5435E+02
     62.641  0.1000E+01  0.5447E+02
     62.756  0.2087E+01  0.5471E+02
     62.871  0.2504E+00  0.5474E+02
     62.985  0.2970E+00  0.5477E+02
     63.100  0.1574E+01  0.5495E+02
     63.215  0.1678E+01  0.5514E+02
     63.329  0.1008E+01  0.5526E+02
     63.444  0.1357E+01  0.5541E+02
     63.559  0.7864E+00  0.5550E+02
     63.673  0.1837E+01  0.5572E+02
     63.788  0.1844E+01  0.5593E+02
     63.903  0.1505E+01  0.5610E+02
     64.018  0.3613E+01  0.5651E+02
     64.132  0.1634E+01  0.5670E+02
     64.247  0.3278E+01  0.5708E+02
     64.362  0.2714E+01  0.5739E+02
     64.476  0.3521E+01  0.5779E+02
     64.591  0.2464E+01  0.5807E+02
     64.706  0.1517E+01  0.5825E+02
     64.820  0.1148E+01  0.5838E+02
     64.935  0.3614E+01  0.5880E+02
     65.050  0.1799E+01  0.5900E+02
     65.164  0.1583E+00  0.5902E+02
     65.279  0.1179E+01  0.5915E+02
     65.394  0.1913E+01  0.5937E+02
     65.509  0.7647E+00  0.5946E+02
     65.623  0.1042E+01  0.5958E+02
     65.738  0.1682E+01  0.5977E+02
     65.853  0.2486E+01  0.6006E+02
     65.967  0.3177E+01  0.6042E+02
     66.082  0.1633E+01  0.6061E+02
     66.197  0.5742E-02  0.6061E+02
     66.311  0.5246E-01  0.6062E+02
     66.426  0.2311E+01  0.6088E+02
     66.541  0.2670E+01  0.6119E+02
     66.656  0.3815E+01  0.6163E+02
     66.770  0.1695E+01  0.6182E+02
     66.885  0.8009E+00  0.6191E+02
     67.000  0.7782E+00  0.6200E+02
     67.114  0.5784E+00  0.6207E+02
     67.229  0.1712E+01  0.6227E+02
     67.344  0.1208E+01  0.6240E+02
     67.458  0.2591E+00  0.6243E+02
     67.573  0.6276E+00  0.6251E+02
     67.688  0.1843E+01  0.6272E+02
     67.803  0.3835E+00  0.6276E+02
     67.917  0.2565E+00  0.6279E+02
     68.032  0.8243E+00  0.6288E+02
     68.147  0.3549E+01  0.6329E+02
     68.261  0.8656E+00  0.6339E+02
     68.376  0.9534E-01  0.6340E+02
     68.491  0.1639E+00  0.6342E+02
     68.605  0.1686E+01  0.6361E+02
     68.720  0.9054E+00  0.6372E+02
     68.835  0.6847E+00  0.6380E+02
     68.949  0.3142E+01  0.6416E+02
     69.064  0.3210E+01  0.6453E+02
     69.179  0.2578E+01  0.6482E+02
     69.294  0.1565E+01  0.6500E+02
     69.408  0.3671E+00  0.6504E+02
     69.523  0.6179E+00  0.6511E+02
     69.638  0.1685E+01  0.6531E+02
     69.752  0.4892E+00  0.6536E+02
     69.867  0.8773E+00  0.6546E+02
     69.982  0.1021E+01  0.6558E+02
     70.096  0.1783E+01  0.6578E+02
     70.211  0.3031E+01  0.6613E+02
     70.326  0.1787E+01  0.6634E+02
     70.441  0.1604E+01  0.6652E+02
     70.555  0.9072E-01  0.6653E+02
     70.670  0.9319E-01  0.6654E+02
     70.785  0.9928E+00  0.6666E+02
     70.899  0.7617E+00  0.6674E+02
     71.014  0.7958E+00  0.6684E+02
     71.129  0.9924E+00  0.6695E+02
     71.243  0.1354E+01  0.6710E+02
     71.358  0.2499E+01  0.6739E+02
     71.473  0.8184E+00  0.6748E+02
     71.588  0.1281E+01  0.6763E+02
     71.702  0.1569E+01  0.6781E+02
     71.817  0.2401E+01  0.6809E+02
     71.932  0.2463E+01  0.6837E+02
     72.046  0.1260E+01  0.6851E+02
     72.161  0.1495E+01  0.6869E+02
     72.276  0.2286E+01  0.6895E+02
     72.390  0.1652E+01  0.6914E+02
     72.505  0.1528E+01  0.6931E+02
     72.620  0.2405E+01  0.6959E+02
     72.734  0.1738E+01  0.6979E+02
     72.849  0.2917E+00  0.6982E+02
     72.964  0.2059E+01  0.7006E+02
     73.079  0.2423E+01  0.7034E+02
     73.193  0.1033E+01  0.7045E+02
     73.308  0.2176E+00  0.7048E+02
     73.423  0.7946E+00  0.7057E+02
     73.537  0.4341E+00  0.7062E+02
     73.652  0.1687E+01  0.7081E+02
     73.767  0.3869E+01  0.7126E+02
     73.881  0.2232E+01  0.7151E+02
     73.996  0.1211E+01  0.7165E+02
     74.111  0.1904E+01  0.7187E+02
     74.226  0.1515E+01  0.7204E+02
     74.340  0.3258E+01  0.7242E+02
     74.455  0.2151E+01  0.7266E+02
     74.570  0.1531E+01  0.7284E+02
     74.684  0.1493E+01  0.7301E+02
     74.799  0.9418E+00  0.7312E+02
     74.914  0.1417E+01  0.7328E+02
     75.028  0.1034E+01  0.7340E+02
     75.143  0.9966E+00  0.7351E+02
     75.258  0.1083E+01  0.7364E+02
     75.373  0.1816E+01  0.7385E+02
     75.487  0.2576E+01  0.7414E+02
     75.602  0.2345E+01  0.7441E+02
     75.717  0.1691E+01  0.7461E+02
     75.831  0.2144E+01  0.7485E+02
     75.946  0.1218E+01  0.7499E+02
     76.061  0.1639E+01  0.7518E+02
     76.175  0.2456E+01  0.7546E+02
     76.290  0.1261E+01  0.7561E+02
     76.405  0.2475E+01  0.7589E+02
     76.519  0.1584E+01  0.7607E+02
     76.634  0.1815E+01  0.7628E+02
     76.749  0.2284E+01  0.7654E+02
     76.864  0.4878E+00  0.7660E+02
     76.978  0.3361E+00  0.7664E+02
     77.093  0.3009E+01  0.7698E+02
     77.208  0.2712E+01  0.7729E+02
     77.322  0.9443E+00  0.7740E+02
     77.437  0.7475E+00  0.7749E+02
     77.552  0.9363E+00  0.7759E+02
     77.666  0.1064E+01  0.7772E+02
     77.781  0.1137E+01  0.7785E+02
     77.896  0.3971E+00  0.7789E+02
     78.011  0.9124E+00  0.7800E+02
     78.125  0.1358E+01  0.7815E+02
     78.240  0.1466E+01  0.7832E+02
     78.355  0.1844E+01  0.7853E+02
     78.469  0.2648E+01  0.7884E+02
     78.584  0.6832E+00  0.7891E+02
     78.699  0.1625E+01  0.7910E+02
     78.813  0.9073E+00  0.7920E+02
     78.928  0.1405E+01  0.7937E+02
     79.043  0.9246E+00  0.7947E+02
     79.158  0.4496E-01  0.7948E+02
     79.272  0.1040E+01  0.7960E+02
     79.387  0.1420E+01  0.7976E+02
     79.502  0.1192E+01  0.7990E+02
     79.616  0.1860E+01  0.8011E+02
     79.731  0.1607E+00  0.8013E+02
     79.846  0.9519E+00  0.8024E+02
     79.960  0.1393E+01  0.8040E+02
     80.075  0.6551E+00  0.8047E+02