    2    2    1    1
  0.1050029E+02  0.3096817E-09  0.3096817E-09  0.3096817E-09  0.5000000E-15
  1.000000000000000E-004
  CAR 
 unknown system                          
      8    252     48
 
  0.0000000E+00  0.0000000E+00  0.0000000E+00  0.1000000E-02
    1       -9.341640
    2        7.546272
    3        7.723448
    4        7.898771
    5       14.943527
    6       15.768915
    7       15.845011
    8       15.855095
    9       23.350335
   10       23.405595
   11       25.111588
   12       26.121240
   13       26.128851
   14       26.156356
   15       32.112471
   16       43.309926
   17       43.427079
   18       43.543932
   19       51.019408
   20       51.081288
   21       51.150982
   22       52.620661
   23       52.688415
   24       56.410703
   25       56.437909
   26       56.486509
   27       68.124926
   28       69.140285
   29       69.151851
   30       69.160745
   31       72.441407
   32       72.451437
   33       72.657709
   34       72.747362
   35       72.804266
   36       78.639144
   37       78.730634
   38       78.756950
   39       79.333184
   40       79.395274
   41       79.414948
   42       80.890242
   43       80.934198
   44       80.986658
   45       81.610837
   46       81.645366
   47       81.651046
   48       81.900877
 
  0.1000000E+00  0.0000000E+00  0.0000000E+00  0.6000000E-02
    1       -9.129317
    2        6.509551
    3        7.516188
    4        7.739231
    5       15.123314
    6       16.079441
    7       16.131100
    8       16.218767
    9       22.338623
   10       22.372059
   11       25.004054
   12       26.459278
   13       27.798507
   14       27.815556
   15       33.313710
   16       42.370628
   17       42.827153
   18       42.967770
   19       49.122716
   20       49.192711
   21       51.693895
   22       52.203234
   23       52.241490
   24       56.666566
   25       59.747749
   26       59.793828
   27       65.534171
   28       68.090165
   29       68.107470
   30       69.606949
   31       70.217512
   32       70.273287
   33       72.092878
   34       72.122833
   35       73.074653
   36       75.810164
   37       75.831407
   38       77.040939
   39       78.230842
   40       78.999758
   41       79.941350
   42       79.956842
   43       80.841507
   44       80.883954
   45       82.080820
   46       83.413384
   47       83.439424
   48       84.368899
 
  0.2000000E+00  0.0000000E+00  0.0000000E+00  0.6000000E-02
    1       -8.501019
    2        4.173152
    3        7.147178
    4        7.368314
    5       14.754787
    6       16.515251
    7       16.562233
    8       17.617189
    9       21.629946
   10       21.665667
   11       24.102826
   12       28.614481
   13       30.589960
   14       30.617556
   15       35.814456
   16       40.658943
   17       40.765710
   18       40.865556
   19       47.114207
   20       47.204500
   21       52.140487
   22       52.529261
   23       52.565911
   24       57.246158
   25       62.707917
   26       63.132491
   27       63.164976
   28       64.353162
   29       64.387335
   30       68.586996
   31       68.845006
   32       68.902016
   33       69.922807
   34       69.953692
   35       71.581953
   36       73.219703
   37       74.917436
   38       74.924661
   39       76.153743
   40       78.277468
   41       79.508796
   42       79.519263
   43       81.357254
   44       83.205936
   45       83.250239
   46       85.700831
   47       85.716667
   48       87.775180
 
  0.3000000E+00  0.0000000E+00  0.0000000E+00  0.6000000E-02
    1       -7.492840
    2        1.597782
    3        6.756092
    4        6.973863
    5       14.338889
    6       16.393695
    7       16.448521
    8       18.683321
    9       22.513691
   10       22.571610
   11       23.889242
   12       31.151275
   13       32.646079
   14       32.710123
   15       37.176002
   16       38.713774
   17       38.760048
   18       41.264958
   19       46.448581
   20       46.554746
   21       50.405171
   22       53.020634
   23       53.059392
   24       58.132658
   25       58.345300
   26       58.367508
   27       61.555551
   28       64.229337
   29       64.274948
   30       64.428950
   31       66.491464
   32       66.514206
   33       70.004619
   34       70.311047
   35       72.948902
   36       72.994969
   37       75.410131
   38       75.562972
   39       75.570090
   40       77.841020
   41       78.785430
   42       78.813054
   43       81.861988
   44       85.620548
   45       85.636518
   46       88.362409
   47       88.402177
   48       88.501462
 
  0.4000000E+00  0.0000000E+00  0.0000000E+00  0.6000000E-02
    1       -6.238389
    2       -0.691391
    3        6.473537
    4        6.689927
    5       14.079375
    6       16.002517
    7       16.061952
    8       18.951863
    9       24.585194
   10       24.635228
   11       24.662940
   12       31.265849
   13       31.357065
   14       31.971127
   15       38.512528
   16       40.253974
   17       40.273864
   18       43.865138
   19       46.002771
   20       46.095996
   21       48.207478
   22       52.527315
   23       52.559610
   24       54.791075
   25       54.821496
   26       57.064651
   27       59.118219
   28       63.548034
   29       63.597615
   30       63.982956
   31       64.621420
   32       64.641426
   33       67.624917
   34       69.873547
   35       74.214103
   36       74.218421
   37       74.606871
   38       76.735888
   39       76.743607
   40       77.693405
   41       81.805265
   42       81.867331
   43       82.740286
   44       87.749398
   45       87.761736
   46       89.814857
   47       91.591015
   48       91.622534
 
  0.5000000E+00  0.0000000E+00  0.0000000E+00  0.3000000E-02
    1       -5.431540
    2       -1.855829
    3        6.371494
    4        6.587662
    5       13.995537
    6       15.828676
    7       15.889449
    8       18.937793
    9       25.210888
   10       26.323472
   11       26.395544
   12       29.369487
   13       29.464164
   14       31.624202
   15       41.475546
   16       41.975327
   17       42.359048
   18       42.383446
   19       45.257232
   20       45.321213
   21       50.646995
   22       50.918621
   23       50.977611
   24       52.484095
   25       54.555284
   26       54.588846
   27       59.619981
   28       63.261941
   29       63.311760
   30       63.914899
   31       63.935197
   32       64.514893
   33       66.657864
   34       69.652404
   35       74.241021
   36       74.424787
   37       74.436190
   38       76.493531
   39       76.507013
   40       77.652559
   41       83.097828
   42       86.354120
   43       86.402198
   44       89.204833
   45       89.263047
   46       91.044255
   47       91.082398
   48       91.783357
 
  0.1000000E+00  0.1000000E+00  0.0000000E+00  0.1200000E-01
    1       -9.058925
    2        6.814472
    3        7.192981
    4        7.275357
    5       14.938995
    6       15.767238
    7       16.629701
    8       16.634333
    9       20.850298
   10       23.714189
   11       26.159689
   12       26.663631
   13       26.665850
   14       28.031307
   15       33.883861
   16       42.215182
   17       42.224331
   18       43.177474
   19       48.690635
   20       50.052194
   21       50.061345
   22       50.612769
   23       53.676829
   24       58.760561
   25       58.765033
   26       60.774032
   27       64.641749
   28       67.572116
   29       67.586090
   30       68.990771
   31       70.157641
   32       71.127474
   33       71.950283
   34       72.099343
   35       72.118546
   36       76.081077
   37       76.085203
   38       76.491507
   39       77.024072
   40       78.858201
   41       78.859529
   42       79.730097
   43       82.607299
   44       82.741167
   45       82.906611
   46       82.915239
   47       83.993012
   48       84.487288
 
  0.2000000E+00  0.1000000E+00  0.0000000E+00  0.2400000E-01
    1       -8.568936
    2        4.953827
    3        6.693419
    4        7.143852
    5       14.584206
    6       16.133633
    7       17.311652
    8       17.350236
    9       20.158534
   10       23.350276
   11       25.698888
   12       28.210448
   13       28.612886
   14       30.343414
   15       35.921355
   16       40.250368
   17       40.496484
   18       42.928670
   19       46.395142
   20       47.753321
   21       50.191265
   22       51.543126
   23       53.876078
   24       59.590370
   25       61.195480
   26       61.817804
   27       63.808683
   28       65.721604
   29       65.993546
   30       66.744556
   31       68.119314
   32       68.941665
   33       70.027301
   34       71.027938
   35       72.512527
   36       73.728750
   37       74.940092
   38       76.366329
   39       76.400672
   40       77.466421
   41       80.156635
   42       80.239005
   43       81.190514
   44       81.885333
   45       82.948744
   46       84.286765
   47       85.319189
   48       86.349770
 
  0.3000000E+00  0.1000000E+00  0.0000000E+00  0.2400000E-01
    1       -7.684501
    2        2.509874
    3        6.276637
    4        6.702259
    5       14.345882
    6       16.307510
    7       17.489339
    8       17.721952
    9       21.164769
   10       23.788355
   11       25.052464
   12       30.559723
   13       31.152899
   14       33.284606
   15       36.573907
   16       37.519437
   17       40.224887
   18       42.276917
   19       45.609284
   20       46.278013
   21       50.693114
   22       51.016406
   23       53.375999
   24       58.141844
   25       59.817019
   26       61.019260
   27       62.226381
   28       63.178505
   29       63.996825
   30       65.969377
   31       66.780128
   32       66.980791
   33       68.606282
   34       71.913190
   35       72.509563
   36       73.041772
   37       74.233136
   38       75.794382
   39       76.651722
   40       76.997521
   41       78.603457
   42       80.942083
   43       82.877243
   44       83.249305
   45       85.104364
   46       85.871229
   47       85.967489
   48       90.375770
 
  0.4000000E+00  0.1000000E+00  0.0000000E+00  0.2400000E-01
    1       -6.490583
    2        0.138007
    3        6.019441
    4        6.211315
    5       14.131962
    6       15.881948
    7       17.030744
    8       18.971463
    9       22.333779
   10       25.456980
   11       25.507905
   12       30.900374
   13       31.588894
   14       34.061701
   15       37.235492
   16       37.945682
   17       41.196102
   18       43.199880
   19       45.356612
   20       46.587335
   21       48.617137
   22       51.375337
   23       51.769311
   24       55.397154
   25       56.423680
   26       59.532997
   27       60.426256
   28       60.747635
   29       62.194331
   30       64.189163
   31       65.362517
   32       66.461683
   33       69.139017
   34       71.612277
   35       71.755069
   36       73.763679
   37       74.388937
   38       76.242369
   39       78.057494
   40       78.422140
   41       81.660580
   42       81.893056
   43       83.897473
   44       84.614612
   45       85.806752
   46       87.642935
   47       90.882629
   48       92.668597
 
  0.5000000E+00  0.1000000E+00  0.0000000E+00  0.1200000E-01
    1       -5.387859
    2       -1.533752
    3        5.695277
    4        6.143341
    5       14.137164
    6       15.611566
    7       16.561534
    8       19.708946
    9       23.836719
   10       26.205919
   11       26.379484
   12       29.723951
   13       30.626527
   14       32.849129
   15       39.957425
   16       41.083426
   17       41.688393
   18       43.500989
   19       45.124617
   20       45.303672
   21       49.363924
   22       51.267548
   23       51.837532
   24       52.390526
   25       54.091469
   26       55.047345
   27       59.674283
   28       60.464732
   29       62.345577
   30       64.104907
   31       64.577279
   32       66.532551
   33       69.422636
   34       70.739983
   35       71.322760
   36       72.946764
   37       73.755584
   38       76.367063
   39       78.753561
   40       81.953085
   41       83.111386
   42       84.447571
   43       85.433736
   44       87.451357
   45       88.102749
   46       88.721739
   47       91.452620
   48       92.033709
 
  0.2000000E+00  0.2000000E+00  0.0000000E+00  0.1200000E-01
    1       -8.221561
    2        5.030556
    3        6.084416
    4        6.117412
    5       13.359082
    6       15.721619
    7       18.441854
    8       18.443452
    9       19.711515
   10       24.630376
   11       28.264715
   12       28.268353
   13       28.792724
   14       29.682522
   15       37.358241
   16       39.341307
   17       39.346216
   18       43.490145
   19       43.762338
   20       49.121499
   21       49.133366
   22       50.548871
   23       54.606844
   24       58.998557
   25       60.559614
   26       60.565563
   27       64.897235
   28       64.903332
   29       64.960510
   30       65.821601
   31       67.484948
   32       70.729460
   33       70.892656
   34       70.899622
   35       71.919599
   36       74.815733
   37       74.821509
   38       75.155777
   39       75.310984
   40       77.214402
   41       77.219686
   42       80.195410
   43       82.200931
   44       83.155490
   45       83.168870
   46       84.623913
   47       86.003698
   48       87.834813
 
  0.3000000E+00  0.2000000E+00  0.0000000E+00  0.2400000E-01
    1       -7.473675
    2        3.247972
    3        5.569596
    4        5.709822
    5       12.869803
    6       15.383604
    7       18.547539
    8       19.108355
    9       21.195250
   10       25.138304
   11       27.751386
   12       30.179166
   13       30.639505
   14       32.445997
   15       36.697302
   16       36.958650
   17       39.421151
   18       42.538328
   19       44.905688
   20       47.138055
   21       48.939174
   22       50.947419
   23       53.576974
   24       56.582239
   25       58.959286
   26       59.206722
   27       63.657383
   28       64.222653
   29       64.462971
   30       65.755773
   31       67.221253
   32       68.602798
   33       68.988832
   34       72.272774
   35       72.490173
   36       73.830675
   37       74.328167
   38       75.374950
   39       76.425465
   40       76.635289
   41       79.510657
   42       80.492282
   43       82.079414
   44       82.891686
   45       83.891917
   46       84.964683
   47       86.440705
   48       90.235929
 
  0.4000000E+00  0.2000000E+00  0.0000000E+00  0.2400000E-01
    1       -6.386973
    2        1.120189
    3        4.872375
    4        5.372117
    5       12.759059
    6       16.225148
    7       18.385240
    8       18.882665
    9       22.558816
   10       26.425572
   11       27.555301
   12       30.928356
   13       31.672006
   14       35.270380
   15       35.966926
   16       36.170814
   17       40.931543
   18       42.568807
   19       44.071535
   20       47.083749
   21       48.960314
   22       49.478363
   23       51.710908
   24       55.017367
   25       57.230498
   26       57.837881
   27       60.441645
   28       62.477673
   29       63.573217
   30       64.299781
   31       65.575176
   32       68.036183
   33       68.133033
   34       71.272412
   35       71.838502
   36       74.311285
   37       76.366859
   38       77.078988
   39       77.748450
   40       79.825118
   41       80.868178
   42       81.935291
   43       82.096114
   44       84.557718
   45       85.311070
   46       85.624323
   47       87.710407
   48       90.357776
 
  0.5000000E+00  0.2000000E+00  0.0000000E+00  0.1200000E-01
    1       -5.201826
    2       -0.705875
    3        4.097845
    4        5.421887
    5       12.860563
    6       17.023882
    7       18.306905
    8       19.222002
    9       22.894079
   10       26.497828
   11       27.872526
   12       30.547654
   13       31.089675
   14       35.603797
   15       38.095313
   16       39.068572
   17       41.044371
   18       42.919305
   19       43.953654
   20       45.343548
   21       48.774757
   22       49.284104
   23       52.572560
   24       53.457071
   25       54.659206
   26       56.795496
   27       57.681998
   28       58.214626
   29       63.019051
   30       63.980233
   31       66.493598
   32       67.357787
   33       68.058646
   34       70.694589
   35       71.702828
   36       74.483107
   37       76.791139
   38       77.016356
   39       79.817991
   40       80.575768
   41       82.083656
   42       83.697298
   43       84.900139
   44       85.693473
   45       87.326032
   46       89.079598
   47       91.472947
   48       91.774418
 
  0.3000000E+00  0.3000000E+00  0.0000000E+00  0.1200000E-01
    1       -6.871001
    2        2.823605
    3        5.020529
    4        5.041167
    5       11.529637
    6       14.088404
    7       20.540519
    8       20.542991
    9       21.564094
   10       26.112999
   11       30.733651
   12       30.740188
   13       30.991594
   14       32.286451
   15       36.298570
   16       36.306142
   17       38.620887
   18       39.341417
   19       46.874386
   20       48.036404
   21       48.048480
   22       50.831056
   23       52.709552
   24       54.325738
   25       56.705887
   26       56.710588
   27       63.276982
   28       64.860760
   29       65.015264
   30       65.020634
   31       67.241432
   32       70.831492
   33       72.585568
   34       72.593663
   35       72.932378
   36       73.838981
   37       74.075137
   38       74.081401
   39       76.129397
   40       76.135529
   41       77.089314
   42       77.507373
   43       80.456344
   44       85.794484
   45       85.833501
   46       85.850500
   47       89.193015
   48       90.563831
 
  0.4000000E+00  0.3000000E+00  0.0000000E+00  0.2400000E-01
    1       -5.920806
    2        1.410152
    3        4.221042
    4        4.713135
    5       11.235306
    6       14.105623
    7       20.697697
    8       20.992483
    9       22.986218
   10       27.171486
   11       30.306043
   12       31.556854
   13       32.452885
   14       33.960532
   15       35.319803
   16       36.225832
   17       38.698874
   18       39.662588
   19       45.440691
   20       47.176459
   21       47.615480
   22       50.372261
   23       52.214191
   24       52.906999
   25       55.139175
   26       55.962124
   27       62.311247
   28       63.763609
   29       64.093287
   30       65.294459
   31       66.382886
   32       68.520832
   33       69.777599
   34       71.486857
   35       73.039708
   36       73.730654
   37       74.871391
   38       76.677492
   39       77.594713
   40       78.007359
   41       78.347631
   42       80.298579
   43       82.117867
   44       85.235019
   45       86.082996
   46       86.449812
   47       89.628885
   48       90.717911
 
  0.5000000E+00  0.3000000E+00  0.0000000E+00  0.1200000E-01
    1       -4.800838
    2        0.026847
    3        2.924142
    4        4.709713
    5       11.524046
    6       15.548338
    7       20.455920
    8       20.568436
    9       23.345348
   10       26.930324
   11       30.389277
   12       31.505462
   13       31.851257
   14       35.308203
   15       37.444387
   16       38.296843
   17       39.422752
   18       40.502700
   19       43.259882
   20       46.015791
   21       46.575631
   22       49.182150
   23       51.468168
   24       53.942963
   25       54.148759
   26       55.744472
   27       59.649158
   28       61.803568
   29       62.703028
   30       64.624410
   31       65.322395
   32       67.906996
   33       68.061278
   34       70.238783
   35       72.638302
   36       74.719384
   37       75.957111
   38       78.194893
   39       78.374229
   40       80.558564
   41       82.279962
   42       82.526209
   43       85.032810
   44       85.850403
   45       87.587590
   46       88.520244
   47       89.501501
   48       91.955349
 
  0.4000000E+00  0.4000000E+00  0.0000000E+00  0.1200000E-01
    1       -5.140739
    2        0.501412
    3        4.297587
    4        4.314369
    5       10.157680
    6       13.073098
    7       22.432013
    8       22.435396
    9       23.446584
   10       28.008522
   11       31.765777
   12       32.036487
   13       32.041863
   14       35.668988
   15       35.745067
   16       35.754038
   17       35.960227
   18       39.708294
   19       45.369709
   20       45.377478
   21       45.924418
   22       48.496755
   23       52.930712
   24       54.040887
   25       54.046675
   26       55.245328
   27       61.888652
   28       64.571619
   29       64.576656
   30       65.435076
   31       66.948427
   32       70.192552
   33       71.241035
   34       72.054234
   35       72.063200
   36       72.221390
   37       73.586567
   38       73.589876
   39       75.344527
   40       76.253183
   41       80.433718
   42       80.437618
   43       83.844428
   44       84.331862
   45       89.405387
   46       89.417377
   47       92.889643
   48       94.777157
 
  0.5000000E+00  0.4000000E+00  0.0000000E+00  0.1200000E-01
    1       -4.232499
    2       -0.457386
    3        3.407442
    4        4.222295
    5       10.344550
    6       13.493297
    7       22.528920
    8       22.602293
    9       23.778032
   10       27.988268
   11       31.026729
   12       31.944957
   13       33.117179
   14       35.152497
   15       35.251851
   16       37.673117
   17       39.100866
   18       40.411362
   19       42.596332
   20       44.043838
   21       45.469718
   22       47.552116
   23       51.152541
   24       53.569391
   25       54.016435
   26       57.578512
   27       62.541606
   28       63.723767
   29       63.876989
   30       64.985325
   31       65.921139
   32       68.069808
   33       68.868910
   34       68.910171
   35       71.049206
   36       74.037881
   37       74.152211
   38       75.387746
   39       77.185327
   40       78.934371
   41       81.764084
   42       82.207489
   43       84.795028
   44       88.068357
   45       90.024293
   46       90.084208
   47       91.742058
   48       93.017829
 
  0.5000000E+00  0.5000000E+00  0.0000000E+00  0.3000000E-02
    1       -3.880935
    2       -0.977144
    3        4.043085
    4        4.059049
    5        9.676160
    6       12.752520
    7       23.320380
    8       23.323713
    9       24.243097
   10       29.322308
   11       31.320991
   12       31.329853
   13       31.815220
   14       33.763055
   15       37.802954
   16       37.815652
   17       38.734160
   18       40.875452
   19       42.835734
   20       42.836959
   21       43.307983
   22       45.929778
   23       53.427486
   24       53.437718
   25       53.505127
   26       57.989941
   27       63.270842
   28       64.336480
   29       64.341184
   30       65.614589
   31       66.450022
   32       66.774416
   33       71.065079
   34       71.609973
   35       71.616710
   36       71.937834
   37       72.971016
   38       73.344723
   39       73.348127
   40       75.986360
   41       83.820864
   42       84.281993
   43       84.284096
   44       90.563564
   45       90.568753
   46       91.305370
   47       91.382672
   48       92.915922
 
  0.1000000E+00  0.1000000E+00  0.1000000E+00  0.8000000E-02
    1       -9.129354
    2        6.512096
    3        7.513449
    4        7.739419
    5       15.124784
    6       16.079445
    7       16.130027
    8       16.218895
    9       22.338294
   10       22.371966
   11       25.004459
   12       26.459495
   13       27.797677
   14       27.815412
   15       33.314030
   16       42.371299
   17       42.826123
   18       42.967716
   19       49.121925
   20       49.192514
   21       51.695425
   22       52.203914
   23       52.241205
   24       56.666845
   25       59.747040
   26       59.793503
   27       65.534917
   28       68.089793
   29       68.107127
   30       69.606654
   31       70.216920
   32       70.274928
   33       72.091384
   34       72.121533
   35       73.076350
   36       75.810304
   37       75.831923
   38       77.040632
   39       78.231359
   40       78.998744
   41       79.941020
   42       79.957253
   43       80.842250
   44       80.884907
   45       82.081342
   46       83.413143
   47       83.439308
   48       84.368933
 
  0.2000000E+00  0.1000000E+00  0.1000000E+00  0.2400000E-01
    1       -8.777902
    2        5.427216
    3        6.612297
    4        7.789202
    5       15.480201
    6       15.892269
    7       16.182778
    8       17.325355
    9       20.840401
   10       22.344484
   11       26.176410
   12       26.895875
   13       28.034357
   14       30.363717
   15       34.922313
   16       40.473637
   17       41.855846
   18       42.925596
   19       47.330406
   20       47.682961
   21       51.486134
   22       51.700216
   23       52.655768
   24       59.376177
   25       60.535630
   26       62.617407
   27       63.632615
   28       65.476645
   29       67.129010
   30       67.766083
   31       69.169483
   32       69.467904
   33       70.035404
   34       71.838380
   35       72.284727
   36       73.727637
   37       74.634703
   38       75.816659
   39       77.668294
   40       78.426300
   41       79.317042
   42       80.447495
   43       81.485175
   44       82.109895
   45       82.996845
   46       83.123785
   47       84.642002
   48       85.405752
 
  0.3000000E+00  0.1000000E+00  0.1000000E+00  0.2400000E-01
    1       -8.020358
    2        3.307041
    3        5.845160
    4        7.480511
    5       15.197830
    6       16.452807
    7       16.489552
    8       17.907456
    9       20.457828
   10       22.932877
   11       25.624224
   12       29.105386
   13       30.659744
   14       33.062194
   15       35.951130
   16       38.902371
   17       40.826830
   18       41.686082
   19       46.025737
   20       46.033997
   21       51.272415
   22       51.765577
   23       52.649096
   24       59.180001
   25       60.851179
   26       61.337685
   27       63.005470
   28       63.338484
   29       64.995965
   30       65.770576
   31       67.615568
   32       68.940226
   33       69.109137
   34       70.387239
   35       71.906147
   36       72.682407
   37       73.915642
   38       75.108893
   39       75.710314
   40       76.569204
   41       80.863711
   42       81.541459
   43       81.966028
   44       83.054284
   45       83.253776
   46       85.770257
   47       88.761000
   48       88.818742
 
  0.4000000E+00  0.1000000E+00  0.1000000E+00  0.2400000E-01
    1       -6.912014
    2        0.890411
    3        5.464832
    4        6.998201
    5       14.784621
    6       16.065707
    7       16.416239
    8       19.006216
    9       21.749060
   10       23.878782
   11       25.907771
   12       30.648401
   13       32.536077
   14       34.108669
   15       35.740103
   16       38.674740
   17       40.696925
   18       42.614356
   19       45.783862
   20       45.901440
   21       49.515299
   22       51.155570
   23       52.923476
   24       55.145582
   25       57.630859
   26       60.651397
   27       60.955962
   28       62.180463
   29       62.364502
   30       64.399318
   31       65.239182
   32       67.143332
   33       70.240106
   34       71.357639
   35       71.749545
   36       72.541623
   37       74.248719
   38       75.602636
   39       75.719076
   40       79.488942
   41       81.216172
   42       81.370397
   43       82.476964
   44       84.091553
   45       86.042883
   46       89.115649
   47       91.056590
   48       91.293584
 
  0.5000000E+00  0.1000000E+00  0.1000000E+00  0.1200000E-01
    1       -5.681065
    2       -1.123685
    3        5.384420
    4        6.544600
    5       14.420548
    6       15.637335
    7       16.321746
    8       19.720440
    9       24.094509
   10       24.536799
   11       26.546703
   12       29.901304
   13       32.051185
   14       32.557754
   15       38.341507
   16       40.930059
   17       42.057686
   18       42.980850
   19       45.780649
   20       45.838335
   21       49.216774
   22       50.167625
   23       52.169923
   24       52.943848
   25       54.169055
   26       56.645182
   27       59.692063
   28       60.887207
   29       62.433855
   30       64.165071
   31       64.486110
   32       66.552243
   33       69.885587
   34       70.909433
   35       71.311849
   36       72.363808
   37       73.804374
   38       76.027531
   39       79.351992
   40       81.918337
   41       82.207266
   42       82.554713
   43       84.856648
   44       85.830710
   45       88.813777
   46       90.962086
   47       92.300842
   48       92.559437
 
  0.2000000E+00  0.2000000E+00  0.1000000E+00  0.2400000E-01
    1       -8.568977
    2        4.955891
    3        6.691501
    4        7.143238
    5       14.585630
    6       16.132853
    7       17.313026
    8       17.349012
    9       20.158482
   10       23.350276
   11       25.699703
   12       28.210051
   13       28.611385
   14       30.344173
   15       35.921653
   16       40.249938
   17       40.497099
   18       42.927974
   19       46.395214
   20       47.752452
   21       50.191377
   22       51.543881
   23       53.876793
   24       59.589889
   25       61.195532
   26       61.817943
   27       63.808143
   28       65.722354
   29       65.992825