       N       E                     dE             d eps       ncg     rms          ort
SDA:   1    -0.140025192927E+02   -0.14003E+02    0.00000E+00 12096   0.507E-01 0.000E+00
CGA:   2    -0.140501479767E+02   -0.47629E-01   -0.30783E-04 12096   0.170E-01-0.132E-01
CGA:   3    -0.140590707952E+02   -0.89228E-02   -0.10287E-01 12096   0.215E-02-0.299E-02
CGA:   4    -0.140605006236E+02   -0.14298E-02   -0.13946E-02 12096   0.460E-03 0.889E-04
CGA:   5    -0.140607224269E+02   -0.22180E-03   -0.21296E-03 12096   0.147E-03 0.240E-03
CGA:   6    -0.140607523854E+02   -0.29959E-04   -0.42358E-04 12096   0.736E-04 0.103E-03
CGA:   7    -0.140607558911E+02   -0.35057E-05   -0.15268E-04 12096   0.490E-04 0.602E-04
CGA:   8    -0.140607544335E+02    0.14577E-05   -0.81428E-05 12096   0.363E-04 0.423E-04
CGA:   9    -0.140607516386E+02    0.27949E-05   -0.50357E-05 12096   0.285E-04 0.323E-04
CGA:  10    -0.140607485588E+02    0.30797E-05   -0.33920E-05 12096   0.233E-04 0.258E-04
CGA:  11    -0.140607455536E+02    0.30052E-05   -0.24198E-05 12096   0.196E-04 0.214E-04
CGA:  12    -0.140607427469E+02    0.28067E-05   -0.17999E-05 12096   0.169E-04 0.182E-04
CGA:  13    -0.140607401731E+02    0.25737E-05   -0.13823E-05 12096   0.148E-04 0.158E-04
CGA:  14    -0.140607378309E+02    0.23422E-05   -0.10958E-05 12096   0.133E-04 0.140E-04
CGA:  15    -0.140607356979E+02    0.21331E-05   -0.89676E-06 12096   0.121E-04 0.126E-04
CGA:  16    -0.140607337537E+02    0.19442E-05   -0.74641E-06 12096   0.111E-04 0.115E-04
CGA:  17    -0.140607319791E+02    0.17745E-05   -0.62965E-06 12096   0.102E-04 0.106E-04
CGA:  18    -0.140607303565E+02    0.16227E-05   -0.53723E-06 12096   0.952E-05 0.984E-05
CGA:  19    -0.140607288696E+02    0.14869E-05   -0.46292E-06 12096   0.891E-05 0.918E-05
CGA:  20    -0.140607275042E+02    0.13654E-05   -0.40231E-06 12096   0.839E-05 0.861E-05
CGA:  21    -0.140607262477E+02    0.12565E-05   -0.35228E-06 12096   0.793E-05 0.812E-05
CGA:  22    -0.140607250890E+02    0.11587E-05   -0.31054E-06 12096   0.753E-05 0.769E-05
CGA:  23    -0.140607240184E+02    0.10706E-05   -0.27529E-06 12096   0.717E-05 0.731E-05
CGA:  24    -0.140607230274E+02    0.99098E-06   -0.24528E-06 12096   0.685E-05 0.697E-05
   1 F= -.14060723E+02 E0= -.14060723E+02  d E =-.818828E-16
