 vasp.5.3.5 31Mar14 (build Oct 01 2015 16:19:09) complex                        
  
 executed on             LinuxIFC date 2022.11.25  14:54:25
 running on   48 total cores
 distrk:  each k-point on   48 cores,    1 groups
 distr:  one band on NCORES_PER_BAND=   1 cores,   48 groups


--------------------------------------------------------------------------------------------------------


 INCAR:
 POTCAR:    PAW_PBE Si 05Jan2001                  
 POTCAR:    PAW_PBE C 08Apr2002                   

 ----------------------------------------------------------------------------- 
|                                                                             |
|           W    W    AA    RRRRR   N    N  II  N    N   GGGG   !!!           |
|           W    W   A  A   R    R  NN   N  II  NN   N  G    G  !!!           |
|           W    W  A    A  R    R  N N  N  II  N N  N  G       !!!           |
|           W WW W  AAAAAA  RRRRR   N  N N  II  N  N N  G  GGG   !            |
|           WW  WW  A    A  R   R   N   NN  II  N   NN  G    G                |
|           W    W  A    A  R    R  N    N  II  N    N   GGGG   !!!           |
|                                                                             |
|      For optimal performance we recommend to set                            |
|        NCORE= 4 - approx SQRT( number of cores)                             |
|      NCORE specifies how many cores store one orbital (NPAR=cpu/NCORE).     |
|      This setting can  greatly improve the performance of VASP for DFT.     |
|      The default, NPAR=number of cores might be grossly inefficient         |
|      on modern multi-core architectures or massively parallel machines.     |
|      Do your own testing !!!!                                               |
|      Unfortunately you need to use the default for GW and RPA calculations. |
|      (for HF NCORE is supported but not extensively tested yet)             |
|                                                                             |
 ----------------------------------------------------------------------------- 

 POTCAR:    PAW_PBE Si 05Jan2001                  
   VRHFIN =Si: s2p2                                                             
   LEXCH  = PE                                                                  
   EATOM  =   103.0669 eV,    7.5752 Ry                                         
                                                                                
   TITEL  = PAW_PBE Si 05Jan2001                                                
   LULTRA =        F    use ultrasoft PP ?                                      
   IUNSCR =        1    unscreen: 0-lin 1-nonlin 2-no                           
   RPACOR =    1.500    partial core radius                                     
   POMASS =   28.085; ZVAL   =    4.000    mass and valenz                      
   RCORE  =    1.900    outmost cutoff radius                                   
   RWIGS  =    2.480; RWIGS  =    1.312    wigner-seitz radius (au A)           
   ENMAX  =  245.345; ENMIN  =  184.009 eV                                      
   ICORE  =        2    local potential                                         
   LCOR   =        T    correct aug charges                                     
   LPAW   =        T    paw PP                                                  
   EAUG   =  322.069                                                            
   DEXC   =    0.000                                                            
   RMAX   =    1.950    core radius for proj-oper                               
   RAUG   =    1.300    factor for augmentation sphere                          
   RDEP   =    1.993    radius for radial grids                                 
   RDEPT  =    1.837    core radius for aug-charge                              
                                                                                
   Atomic configuration                                                         
    6 entries                                                                   
     n  l   j            E        occ.                                          
     1  0  0.50     -1785.8828   2.0000                                         
     2  0  0.50      -139.4969   2.0000                                         
     2  1  1.50       -95.5546   6.0000                                         
     3  0  0.50       -10.8127   2.0000                                         
     3  1  0.50        -4.0811   2.0000                                         
     3  2  1.50        -4.0817   0.0000                                         
   Description                                                                  
     l       E           TYP  RCUT    TYP  RCUT                                 
     0    -10.8127223     23  1.900                                             
     0     -7.6451159     23  1.900                                             
     1     -4.0811372     23  1.900                                             
     1      2.4879257     23  1.900                                             
     2     -4.0817478      7  1.900                                             
  local pseudopotential read in
  partial core-charges read in
  partial kinetic energy density read in
  atomic valenz-charges read in
  non local Contribution for L=           0  read in
    real space projection operators read in
  non local Contribution for L=           0  read in
    real space projection operators read in
  non local Contribution for L=           1  read in
    real space projection operators read in
  non local Contribution for L=           1  read in
    real space projection operators read in
    PAW grid and wavefunctions read in
 
   number of l-projection  operators is LMAX  =           4
   number of lm-projection operators is LMMAX =           8
 
 POTCAR:    PAW_PBE C 08Apr2002                   
   VRHFIN =C: s2p2                                                              
   LEXCH  = PE                                                                  
   EATOM  =   147.1560 eV,   10.8157 Ry                                         
                                                                                
   TITEL  = PAW_PBE C 08Apr2002                                                 
   LULTRA =        F    use ultrasoft PP ?                                      
   IUNSCR =        1    unscreen: 0-lin 1-nonlin 2-no                           
   RPACOR =    1.200    partial core radius                                     
   POMASS =   12.011; ZVAL   =    4.000    mass and valenz                      
   RCORE  =    1.500    outmost cutoff radius                                   
   RWIGS  =    1.630; RWIGS  =    0.863    wigner-seitz radius (au A)           
   ENMAX  =  400.000; ENMIN  =  300.000 eV                                      
   ICORE  =        2    local potential                                         
   LCOR   =        T    correct aug charges                                     
   LPAW   =        T    paw PP                                                  
   EAUG   =  644.873                                                            
   DEXC   =    0.000                                                            
   RMAX   =    1.529    core radius for proj-oper                               
   RAUG   =    1.300    factor for augmentation sphere                          
   RDEP   =    1.501    radius for radial grids                                 
   RDEPT  =    1.300    core radius for aug-charge                              
                                                                                
   Atomic configuration                                                         
    4 entries                                                                   
     n  l   j            E        occ.                                          
     1  0  0.50      -273.3789   2.0000                                         
     2  0  0.50       -13.7508   2.0000                                         
     2  1  0.50        -5.2854   2.0000                                         
     3  2  1.50        -5.4423   0.0000                                         
   Description                                                                  
     l       E           TYP  RCUT    TYP  RCUT                                 
     0    -13.7508458     23  1.200                                             
     0     -8.2022199     23  1.200                                             
     1     -5.2854383     23  1.500                                             
     1     34.0145650     23  1.500                                             
     2     -5.4423304      7  1.500                                             
  local pseudopotential read in
  partial core-charges read in
  partial kinetic energy density read in
  atomic valenz-charges read in
  non local Contribution for L=           0  read in
    real space projection operators read in
  non local Contribution for L=           0  read in
    real space projection operators read in
  non local Contribution for L=           1  read in
    real space projection operators read in
  non local Contribution for L=           1  read in
    real space projection operators read in
    PAW grid and wavefunctions read in
 
   number of l-projection  operators is LMAX  =           4
   number of lm-projection operators is LMMAX =           8
 
  PAW_PBE Si 05Jan2001                  :
 energy of atom  1       EATOM= -103.0669
 kinetic energy error for atom=    0.0006 (will be added to EATOM!!)
  PAW_PBE C 08Apr2002                   :
 energy of atom  2       EATOM= -147.1560
 kinetic energy error for atom=    0.0076 (will be added to EATOM!!)
 
 
 POSCAR: Si4 C4                                  
  positions in direct lattice
  No initial velocities read in
 exchange correlation table for  LEXCH =        8
   RHO(1)=    0.500       N(1)  =     2000
   RHO(2)=  100.500       N(2)  =     4000
 


--------------------------------------------------------------------------------------------------------


 ion  position               nearest neighbor table
   1  0.250  0.250  0.250-   2 1.90   2 1.90   2 1.90   2 1.90
   2  0.000  0.000  0.000-   1 1.90   1 1.90   1 1.90   1 1.90
 
  LATTYP: Found a face centered cubic cell.
 ALAT       =     4.3795600000
  
  Lattice vectors:
  
 A1 = (   0.0000000000,   2.1897800000,   2.1897800000)
 A2 = (   2.1897800000,   0.0000000000,   2.1897800000)
 A3 = (   2.1897800000,   2.1897800000,   0.0000000000)


Analysis of symmetry for initial positions (statically):
=====================================================================
 Subroutine PRICEL returns:
 Original cell was already a primitive cell.
 

 Routine SETGRP: Setting up the symmetry group for a 
 face centered cubic supercell.


 Subroutine GETGRP returns: Found 24 space group operations
 (whereof 24 operations were pure point group operations)
 out of a pool of 48 trial point group operations.


The static configuration has the point symmetry T_d .


Analysis of symmetry for dynamics (positions and initial velocities):
=====================================================================
 Subroutine PRICEL returns:
 Original cell was already a primitive cell.
 

 Routine SETGRP: Setting up the symmetry group for a 
 face centered cubic supercell.


 Subroutine GETGRP returns: Found 24 space group operations
 (whereof 24 operations were pure point group operations)
 out of a pool of 48 trial point group operations.


The dynamic configuration has the point symmetry T_d .
 
 
 KPOINTS: 10	10	10	56	196	12	20	8	26	24	10	10	20	8
  k-points in reciprocal lattice
Space group operators:
 irot       det(A)        alpha          n_x          n_y          n_z        tau_x        tau_y        tau_z
    1     1.000000     0.000000     1.000000     0.000000     0.000000     0.000000     0.000000     0.000000
    2     1.000000   120.000000    -0.577350    -0.577350    -0.577350     0.000000     0.000000     0.000000
    3     1.000000   120.000000     0.577350     0.577350     0.577350     0.000000     0.000000     0.000000
    4    -1.000000    90.000000     0.000000     0.000000    -1.000000     0.000000     0.000000     0.000000
    5    -1.000000   180.000000     0.000000     0.707107     0.707107     0.000000     0.000000     0.000000
    6    -1.000000    90.000000     0.000000     1.000000     0.000000     0.000000     0.000000     0.000000
    7     1.000000   179.999999     0.000000     0.000000     1.000000     0.000000     0.000000     0.000000
    8     1.000000   120.000000    -0.577350     0.577350     0.577350     0.000000     0.000000     0.000000
    9     1.000000   120.000000    -0.577350     0.577350    -0.577350     0.000000     0.000000     0.000000
   10    -1.000000    90.000000     0.000000     0.000000     1.000000     0.000000     0.000000     0.000000
   11    -1.000000    90.000000    -1.000000     0.000000     0.000000     0.000000     0.000000     0.000000
   12    -1.000000   180.000000     0.707107     0.000000     0.707107     0.000000     0.000000     0.000000
   13     1.000000   120.000000     0.577350    -0.577350     0.577350     0.000000     0.000000     0.000000
   14     1.000000   120.000000    -0.577350    -0.577350     0.577350     0.000000     0.000000     0.000000
   15     1.000000   180.000000     1.000000     0.000000     0.000000     0.000000     0.000000     0.000000
   16    -1.000000    90.000000     0.000000    -1.000000     0.000000     0.000000     0.000000     0.000000
   17    -1.000000   180.000000     0.707107     0.707107     0.000000     0.000000     0.000000     0.000000
   18    -1.000000    90.000000     1.000000     0.000000     0.000000     0.000000     0.000000     0.000000
   19     1.000000   120.000000     0.577350    -0.577350    -0.577350     0.000000     0.000000     0.000000
   20     1.000000   180.000000     0.000000     1.000000     0.000000     0.000000     0.000000     0.000000
   21     1.000000   120.000000     0.577350     0.577350    -0.577350     0.000000     0.000000     0.000000
   22    -1.000000   180.000000     0.000000    -0.707107     0.707107     0.000000     0.000000     0.000000
   23    -1.000000   180.000000     0.707107    -0.707107     0.000000     0.000000     0.000000     0.000000
   24    -1.000000   180.000000     0.707107     0.000000    -0.707107     0.000000     0.000000     0.000000

 ----------------------------------------------------------------------------- 
|                                                                             |
|           W    W    AA    RRRRR   N    N  II  N    N   GGGG   !!!           |
|           W    W   A  A   R    R  NN   N  II  NN   N  G    G  !!!           |
|           W    W  A    A  R    R  N N  N  II  N N  N  G       !!!           |
|           W WW W  AAAAAA  RRRRR   N  N N  II  N  N N  G  GGG   !            |
|           WW  WW  A    A  R   R   N   NN  II  N   NN  G    G                |
|           W    W  A    A  R    R  N    N  II  N    N   GGGG   !!!           |
|                                                                             |
|      Your generating k-point grid is not commensurate to the symmetry       |
|      of the lattice.  This can cause   slow convergence with respect        |
|      to k-points for HF type calculations                                   |
|      suggested SOLUTIONS:                                                   |
|       ) if not already the case, use automatic k-point generation           |
|       ) shift your grid to Gamma (G) (e.g. required for hex or fcc lattice) |
|                                                                             |
 ----------------------------------------------------------------------------- 

 
 Subroutine IBZKPT_HF returns following result:
 ==============================================
 
 Found    860 k-points in 1st BZ
 the following    860 k-points will be used (e.g. in the exchange kernel)
 Following reciprocal coordinates:   # in IRBZ
  0.000000  0.000000  0.000000       1 t-inv F
  0.100000  0.000000  0.000000       2 t-inv F
  0.200000  0.000000  0.000000       3 t-inv F
  0.300000  0.000000  0.000000       4 t-inv F
  0.400000  0.000000  0.000000       5 t-inv F
  0.500000  0.000000  0.000000       6 t-inv F
  0.100000  0.100000  0.000000       7 t-inv F
  0.200000  0.100000  0.000000       8 t-inv F
  0.300000  0.100000  0.000000       9 t-inv F
  0.400000  0.100000  0.000000      10 t-inv F
  0.500000  0.100000  0.000000      11 t-inv F
  0.200000  0.200000  0.000000      12 t-inv F
  0.300000  0.200000  0.000000      13 t-inv F
  0.400000  0.200000  0.000000      14 t-inv F
  0.500000  0.200000  0.000000      15 t-inv F
  0.300000  0.300000  0.000000      16 t-inv F
  0.400000  0.300000  0.000000      17 t-inv F
  0.500000  0.300000  0.000000      18 t-inv F
  0.400000  0.400000  0.000000      19 t-inv F
  0.500000  0.400000  0.000000      20 t-inv F
  0.500000  0.500000  0.000000      21 t-inv F
  0.100000  0.100000  0.100000      22 t-inv F
  0.200000  0.100000  0.100000      23 t-inv F
  0.300000  0.100000  0.100000      24 t-inv F
  0.400000  0.100000  0.100000      25 t-inv F
  0.500000  0.100000  0.100000      26 t-inv F
  0.200000  0.200000  0.100000      27 t-inv F
  0.300000  0.200000  0.100000      28 t-inv F
  0.400000  0.200000  0.100000      29 t-inv F
  0.500000  0.200000  0.100000      30 t-inv F
  0.300000  0.300000  0.100000      31 t-inv F
  0.400000  0.300000  0.100000      32 t-inv F
  0.500000  0.300000  0.100000      33 t-inv F
  0.400000  0.400000  0.100000      34 t-inv F
  0.500000  0.400000  0.100000      35 t-inv F
  0.500000  0.500000  0.100000      36 t-inv F
  0.200000  0.200000  0.200000      37 t-inv F
  0.300000  0.200000  0.200000      38 t-inv F
  0.400000  0.200000  0.200000      39 t-inv F
  0.500000  0.200000  0.200000      40 t-inv F
  0.300000  0.300000  0.200000      41 t-inv F
  0.400000  0.300000  0.200000      42 t-inv F
  0.500000  0.300000  0.200000      43 t-inv F
  0.400000  0.400000  0.200000      44 t-inv F
  0.500000  0.400000  0.200000      45 t-inv F
  0.500000  0.500000  0.200000      46 t-inv F
  0.300000  0.300000  0.300000      47 t-inv F
  0.400000  0.300000  0.300000      48 t-inv F
  0.500000  0.300000  0.300000      49 t-inv F
  0.400000  0.400000  0.300000      50 t-inv F
  0.500000  0.400000  0.300000      51 t-inv F
  0.500000  0.500000  0.300000      52 t-inv F
  0.400000  0.400000  0.400000      53 t-inv F
  0.500000  0.400000  0.400000      54 t-inv F
  0.500000  0.500000  0.400000      55 t-inv F
  0.500000  0.500000  0.500000      56 t-inv F
  0.000000  0.000000  0.000000      57 t-inv F
  0.026316  0.000000  0.026316      58 t-inv F
  0.052632  0.000000  0.052632      59 t-inv F
  0.078947  0.000000  0.078947      60 t-inv F
  0.105263  0.000000  0.105263      61 t-inv F
  0.131579  0.000000  0.131579      62 t-inv F
  0.157895  0.000000  0.157895      63 t-inv F
  0.184211  0.000000  0.184211      64 t-inv F
  0.210526  0.000000  0.210526      65 t-inv F
  0.236842  0.000000  0.236842      66 t-inv F
  0.263158  0.000000  0.263158      67 t-inv F
  0.289474  0.000000  0.289474      68 t-inv F
  0.315789  0.000000  0.315789      69 t-inv F
  0.342105  0.000000  0.342105      70 t-inv F
  0.368421  0.000000  0.368421      71 t-inv F
  0.394737  0.000000  0.394737      72 t-inv F
  0.421053  0.000000  0.421053      73 t-inv F
  0.447368  0.000000  0.447368      74 t-inv F
  0.473684  0.000000  0.473684      75 t-inv F
  0.500000  0.000000  0.500000      76 t-inv F
  0.500000  0.000000  0.500000      77 t-inv F
  0.517857  0.035714  0.517857      78 t-inv F
  0.535714  0.071429  0.535714      79 t-inv F
  0.553571  0.107143  0.553571      80 t-inv F
  0.571429  0.142857  0.571429      81 t-inv F
  0.589286  0.178571  0.589286      82 t-inv F
  0.607143  0.214286  0.607143      83 t-inv F
  0.625000  0.250000  0.625000      84 t-inv F
  0.375000  0.375000  0.750000      85 t-inv F
  0.360000  0.360000  0.720000      86 t-inv F
  0.345000  0.345000  0.690000      87 t-inv F
  0.330000  0.330000  0.660000      88 t-inv F
  0.315000  0.315000  0.630000      89 t-inv F
  0.300000  0.300000  0.600000      90 t-inv F
  0.285000  0.285000  0.570000      91 t-inv F
  0.270000  0.270000  0.540000      92 t-inv F
  0.255000  0.255000  0.510000      93 t-inv F
  0.240000  0.240000  0.480000      94 t-inv F
  0.225000  0.225000  0.450000      95 t-inv F
  0.210000  0.210000  0.420000      96 t-inv F
  0.195000  0.195000  0.390000      97 t-inv F
  0.180000  0.180000  0.360000      98 t-inv F
  0.165000  0.165000  0.330000      99 t-inv F
  0.150000  0.150000  0.300000     100 t-inv F
  0.135000  0.135000  0.270000     101 t-inv F
  0.120000  0.120000  0.240000     102 t-inv F
  0.105000  0.105000  0.210000     103 t-inv F
  0.090000  0.090000  0.180000     104 t-inv F
  0.075000  0.075000  0.150000     105 t-inv F
  0.060000  0.060000  0.120000     106 t-inv F
  0.045000  0.045000  0.090000     107 t-inv F
  0.030000  0.030000  0.060000     108 t-inv F
  0.015000  0.015000  0.030000     109 t-inv F
  0.000000  0.000000  0.000000     110 t-inv F
  0.000000  0.000000  0.000000     111 t-inv F
  0.021739  0.021739  0.021739     112 t-inv F
  0.043478  0.043478  0.043478     113 t-inv F
  0.065217  0.065217  0.065217     114 t-inv F
  0.086957  0.086957  0.086957     115 t-inv F
  0.108696  0.108696  0.108696     116 t-inv F
  0.130435  0.130435  0.130435     117 t-inv F
  0.152174  0.152174  0.152174     118 t-inv F
  0.173913  0.173913  0.173913     119 t-inv F
  0.195652  0.195652  0.195652     120 t-inv F
  0.217391  0.217391  0.217391     121 t-inv F
  0.239130  0.239130  0.239130     122 t-inv F
  0.260870  0.260870  0.260870     123 t-inv F
  0.282609  0.282609  0.282609     124 t-inv F
  0.304348  0.304348  0.304348     125 t-inv F
  0.326087  0.326087  0.326087     126 t-inv F
  0.347826  0.347826  0.347826     127 t-inv F
  0.369565  0.369565  0.369565     128 t-inv F
  0.391304  0.391304  0.391304     129 t-inv F
  0.413043  0.413043  0.413043     130 t-inv F
  0.434783  0.434783  0.434783     131 t-inv F
  0.456522  0.456522  0.456522     132 t-inv F
  0.478261  0.478261  0.478261     133 t-inv F
  0.500000  0.500000  0.500000     134 t-inv F
  0.500000  0.500000  0.500000     135 t-inv F
  0.500000  0.472222  0.527778     136 t-inv F
  0.500000  0.444444  0.555556     137 t-inv F
  0.500000  0.416667  0.583333     138 t-inv F
  0.500000  0.388889  0.611111     139 t-inv F
  0.500000  0.361111  0.638889     140 t-inv F
  0.500000  0.333333  0.666667     141 t-inv F
  0.500000  0.305556  0.694444     142 t-inv F
  0.500000  0.277778  0.722222     143 t-inv F
  0.500000  0.250000  0.750000     144 t-inv F
  0.500000  0.250000  0.750000     145 t-inv F
  0.500000  0.222222  0.722222     146 t-inv F
  0.500000  0.194444  0.694444     147 t-inv F
  0.500000  0.166667  0.666667     148 t-inv F
  0.500000  0.138889  0.638889     149 t-inv F
  0.500000  0.111111  0.611111     150 t-inv F
  0.500000  0.083333  0.583333     151 t-inv F
  0.500000  0.055556  0.555556     152 t-inv F
  0.500000  0.027778  0.527778     153 t-inv F
  0.500000  0.000000  0.500000     154 t-inv F
  0.000000  0.000000  0.000000     155 t-inv F
 -0.026316  0.000000 -0.026316     156 t-inv F
 -0.052632  0.000000 -0.052632     157 t-inv F
 -0.078947  0.000000 -0.078947     158 t-inv F
 -0.105263  0.000000 -0.105263     159 t-inv F
 -0.131579  0.000000 -0.131579     160 t-inv F
 -0.157895  0.000000 -0.157895     161 t-inv F
 -0.184211  0.000000 -0.184211     162 t-inv F
 -0.210526  0.000000 -0.210526     163 t-inv F
 -0.236842  0.000000 -0.236842     164 t-inv F
 -0.263158  0.000000 -0.263158     165 t-inv F
 -0.289474  0.000000 -0.289474     166 t-inv F
 -0.315789  0.000000 -0.315789     167 t-inv F
 -0.342105  0.000000 -0.342105     168 t-inv F
 -0.368421  0.000000 -0.368421     169 t-inv F
 -0.394737  0.000000 -0.394737     170 t-inv F
 -0.421053  0.000000 -0.421053     171 t-inv F
 -0.447368  0.000000 -0.447368     172 t-inv F
 -0.473684  0.000000 -0.473684     173 t-inv F
 -0.500000  0.000000 -0.500000     174 t-inv F
 -0.500000  0.000000 -0.500000     175 t-inv F
 -0.517857 -0.035714 -0.517857     176 t-inv F
 -0.535714 -0.071429 -0.535714     177 t-inv F
 -0.553571 -0.107143 -0.553571     178 t-inv F
 -0.571429 -0.142857 -0.571429     179 t-inv F
 -0.589286 -0.178571 -0.589286     180 t-inv F
 -0.607143 -0.214286 -0.607143     181 t-inv F
 -0.625000 -0.250000 -0.625000     182 t-inv F
 -0.375000 -0.375000 -0.750000     183 t-inv F
 -0.360000 -0.360000 -0.720000     184 t-inv F
 -0.345000 -0.345000 -0.690000     185 t-inv F
 -0.330000 -0.330000 -0.660000     186 t-inv F
 -0.315000 -0.315000 -0.630000     187 t-inv F
 -0.300000 -0.300000 -0.600000     188 t-inv F
 -0.285000 -0.285000 -0.570000     189 t-inv F
 -0.270000 -0.270000 -0.540000     190 t-inv F
 -0.255000 -0.255000 -0.510000     191 t-inv F
 -0.240000 -0.240000 -0.480000     192 t-inv F
 -0.225000 -0.225000 -0.450000     193 t-inv F
 -0.210000 -0.210000 -0.420000     194 t-inv F
 -0.195000 -0.195000 -0.390000     195 t-inv F
 -0.180000 -0.180000 -0.360000     196 t-inv F
 -0.165000 -0.165000 -0.330000     197 t-inv F
 -0.150000 -0.150000 -0.300000     198 t-inv F
 -0.135000 -0.135000 -0.270000     199 t-inv F
 -0.120000 -0.120000 -0.240000     200 t-inv F
 -0.105000 -0.105000 -0.210000     201 t-inv F
 -0.090000 -0.090000 -0.180000     202 t-inv F
 -0.075000 -0.075000 -0.150000     203 t-inv F
 -0.060000 -0.060000 -0.120000     204 t-inv F
 -0.045000 -0.045000 -0.090000     205 t-inv F
 -0.030000 -0.030000 -0.060000     206 t-inv F
 -0.015000 -0.015000 -0.030000     207 t-inv F
  0.000000  0.000000  0.000000     208 t-inv F
  0.000000  0.000000  0.000000     209 t-inv F
 -0.021739 -0.021739 -0.021739     210 t-inv F
 -0.043478 -0.043478 -0.043478     211 t-inv F
 -0.065217 -0.065217 -0.065217     212 t-inv F
 -0.086957 -0.086957 -0.086957     213 t-inv F
 -0.108696 -0.108696 -0.108696     214 t-inv F
 -0.130435 -0.130435 -0.130435     215 t-inv F
 -0.152174 -0.152174 -0.152174     216 t-inv F
 -0.173913 -0.173913 -0.173913     217 t-inv F
 -0.195652 -0.195652 -0.195652     218 t-inv F
 -0.217391 -0.217391 -0.217391     219 t-inv F
 -0.239130 -0.239130 -0.239130     220 t-inv F
 -0.260870 -0.260870 -0.260870     221 t-inv F
 -0.282609 -0.282609 -0.282609     222 t-inv F
 -0.304348 -0.304348 -0.304348     223 t-inv F
 -0.326087 -0.326087 -0.326087     224 t-inv F
 -0.347826 -0.347826 -0.347826     225 t-inv F
 -0.369565 -0.369565 -0.369565     226 t-inv F
 -0.391304 -0.391304 -0.391304     227 t-inv F
 -0.413043 -0.413043 -0.413043     228 t-inv F
 -0.434783 -0.434783 -0.434783     229 t-inv F
 -0.456522 -0.456522 -0.456522     230 t-inv F
 -0.478261 -0.478261 -0.478261     231 t-inv F
 -0.500000 -0.500000 -0.500000     232 t-inv F
 -0.500000 -0.500000 -0.500000     233 t-inv F
 -0.500000 -0.472222 -0.527778     234 t-inv F
 -0.500000 -0.444444 -0.555556     235 t-inv F
 -0.500000 -0.416667 -0.583333     236 t-inv F
 -0.500000 -0.388889 -0.611111     237 t-inv F
 -0.500000 -0.361111 -0.638889     238 t-inv F
 -0.500000 -0.333333 -0.666667     239 t-inv F
 -0.500000 -0.305556 -0.694444     240 t-inv F
 -0.500000 -0.277778 -0.722222     241 t-inv F
 -0.500000 -0.250000 -0.750000     242 t-inv F
 -0.500000 -0.250000 -0.750000     243 t-inv F
 -0.500000 -0.222222 -0.722222     244 t-inv F
 -0.500000 -0.194444 -0.694444     245 t-inv F
 -0.500000 -0.166667 -0.666667     246 t-inv F
 -0.500000 -0.138889 -0.638889     247 t-inv F
 -0.500000 -0.111111 -0.611111     248 t-inv F
 -0.500000 -0.083333 -0.583333     249 t-inv F
 -0.500000 -0.055556 -0.555556     250 t-inv F
 -0.500000 -0.027778 -0.527778     251 t-inv F
 -0.500000  0.000000 -0.500000     252 t-inv F
  0.000000  0.100000  0.000000       2 t-inv F
  0.000000  0.000000  0.100000       2 t-inv F
 -0.100000 -0.100000 -0.100000       2 t-inv F
  0.000000  0.200000  0.000000       3 t-inv F
  0.000000  0.000000  0.200000       3 t-inv F
 -0.200000 -0.200000 -0.200000       3 t-inv F
  0.000000  0.300000  0.000000       4 t-inv F
  0.000000  0.000000  0.300000       4 t-inv F
 -0.300000 -0.300000 -0.300000       4 t-inv F
  0.000000  0.400000  0.000000       5 t-inv F
  0.000000  0.000000  0.400000       5 t-inv F
 -0.400000 -0.400000 -0.400000       5 t-inv F
  0.000000  0.500000  0.000000       6 t-inv F
  0.000000  0.000000  0.500000       6 t-inv F
  0.000000  0.100000  0.100000       7 t-inv F
  0.100000  0.000000  0.100000       7 t-inv F
 -0.100000 -0.100000  0.000000       7 t-inv F
 -0.100000  0.000000 -0.100000       7 t-inv F
  0.000000 -0.100000 -0.100000       7 t-inv F
  0.000000  0.200000  0.100000       8 t-inv F
  0.100000  0.000000  0.200000       8 t-inv F
 -0.100000 -0.100000  0.100000       8 t-inv F
 -0.200000 -0.100000 -0.200000       8 t-inv F
  0.100000  0.200000  0.000000       8 t-inv F
  0.100000 -0.100000 -0.100000       8 t-inv F
 -0.200000 -0.200000 -0.100000       8 t-inv F
  0.000000  0.100000  0.200000       8 t-inv F
 -0.100000  0.100000 -0.100000       8 t-inv F
 -0.100000 -0.200000 -0.200000       8 t-inv F
  0.200000  0.000000  0.100000       8 t-inv F
  0.000000  0.300000  0.100000       9 t-inv F
  0.100000  0.000000  0.300000       9 t-inv F
 -0.100000 -0.100000  0.200000       9 t-inv F
 -0.300000 -0.200000 -0.300000       9 t-inv F
  0.100000  0.300000  0.000000       9 t-inv F
  0.200000 -0.100000 -0.100000       9 t-inv F
 -0.300000 -0.300000 -0.200000       9 t-inv F
  0.000000  0.100000  0.300000       9 t-inv F
 -0.100000  0.200000 -0.100000       9 t-inv F
 -0.200000 -0.300000 -0.300000       9 t-inv F
  0.300000  0.000000  0.100000       9 t-inv F
  0.000000  0.400000  0.100000      10 t-inv F
  0.100000  0.000000  0.400000      10 t-inv F
 -0.100000 -0.100000  0.300000      10 t-inv F
 -0.400000 -0.300000 -0.400000      10 t-inv F
  0.100000  0.400000  0.000000      10 t-inv F
  0.300000 -0.100000 -0.100000      10 t-inv F
 -0.400000 -0.400000 -0.300000      10 t-inv F
  0.000000  0.100000  0.400000      10 t-inv F
 -0.100000  0.300000 -0.100000      10 t-inv F
 -0.300000 -0.400000 -0.400000      10 t-inv F
  0.400000  0.000000  0.100000      10 t-inv F
  0.000000  0.500000  0.100000      11 t-inv F
  0.100000  0.000000  0.500000      11 t-inv F
 -0.100000 -0.100000  0.400000      11 t-inv F
 -0.500000 -0.400000 -0.500000      11 t-inv F
  0.100000  0.500000  0.000000      11 t-inv F
  0.400000 -0.100000 -0.100000      11 t-inv F
 -0.500000 -0.500000 -0.400000      11 t-inv F
  0.000000  0.100000  0.500000      11 t-inv F
 -0.100000  0.400000 -0.100000      11 t-inv F
 -0.400000 -0.500000 -0.500000      11 t-inv F
  0.500000  0.000000  0.100000      11 t-inv F
  0.000000  0.200000  0.200000      12 t-inv F
  0.200000  0.000000  0.200000      12 t-inv F
 -0.200000 -0.200000  0.000000      12 t-inv F
 -0.200000  0.000000 -0.200000      12 t-inv F
  0.000000 -0.200000 -0.200000      12 t-inv F
  0.000000  0.300000  0.200000      13 t-inv F
  0.200000  0.000000  0.300000      13 t-inv F
 -0.200000 -0.200000  0.100000      13 t-inv F
 -0.300000 -0.100000 -0.300000      13 t-inv F
  0.200000  0.300000  0.000000      13 t-inv F
  0.100000 -0.200000 -0.200000      13 t-inv F
 -0.300000 -0.300000 -0.100000      13 t-inv F
  0.000000  0.200000  0.300000      13 t-inv F
 -0.200000  0.100000 -0.200000      13 t-inv F
 -0.100000 -0.300000 -0.300000      13 t-inv F
  0.300000  0.000000  0.200000      13 t-inv F
  0.000000  0.400000  0.200000      14 t-inv F
  0.200000  0.000000  0.400000      14 t-inv F
 -0.200000 -0.200000  0.200000      14 t-inv F
 -0.400000 -0.200000 -0.400000      14 t-inv F
  0.200000  0.400000  0.000000      14 t-inv F
  0.200000 -0.200000 -0.200000      14 t-inv F
 -0.400000 -0.400000 -0.200000      14 t-inv F
  0.000000  0.200000  0.400000      14 t-inv F
 -0.200000  0.200000 -0.200000      14 t-inv F
 -0.200000 -0.400000 -0.400000      14 t-inv F
  0.400000  0.000000  0.200000      14 t-inv F
  0.000000  0.500000  0.200000      15 t-inv F
  0.200000  0.000000  0.500000      15 t-inv F
 -0.200000 -0.200000  0.300000      15 t-inv F
 -0.500000 -0.300000 -0.500000      15 t-inv F
  0.200000  0.500000  0.000000      15 t-inv F
  0.300000 -0.200000 -0.200000      15 t-inv F
 -0.500000 -0.500000 -0.300000      15 t-inv F
  0.000000  0.200000  0.500000      15 t-inv F
 -0.200000  0.300000 -0.200000      15 t-inv F
 -0.300000 -0.500000 -0.500000      15 t-inv F
  0.500000  0.000000  0.200000      15 t-inv F
  0.000000  0.300000  0.300000      16 t-inv F
  0.300000  0.000000  0.300000      16 t-inv F
 -0.300000 -0.300000  0.000000      16 t-inv F
 -0.300000  0.000000 -0.300000      16 t-inv F
  0.000000 -0.300000 -0.300000      16 t-inv F
  0.000000  0.400000  0.300000      17 t-inv F
  0.300000  0.000000  0.400000      17 t-inv F
 -0.300000 -0.300000  0.100000      17 t-inv F
 -0.400000 -0.100000 -0.400000      17 t-inv F
  0.300000  0.400000  0.000000      17 t-inv F
  0.100000 -0.300000 -0.300000      17 t-inv F
 -0.400000 -0.400000 -0.100000      17 t-inv F
  0.000000  0.300000  0.400000      17 t-inv F
 -0.300000  0.100000 -0.300000      17 t-inv F
 -0.100000 -0.400000 -0.400000      17 t-inv F
  0.400000  0.000000  0.300000      17 t-inv F
  0.000000  0.500000  0.300000      18 t-inv F
  0.300000  0.000000  0.500000      18 t-inv F
 -0.300000 -0.300000  0.200000      18 t-inv F
 -0.500000 -0.200000 -0.500000      18 t-inv F
  0.300000  0.500000  0.000000      18 t-inv F
  0.200000 -0.300000 -0.300000      18 t-inv F
 -0.500000 -0.500000 -0.200000      18 t-inv F
  0.000000  0.300000  0.500000      18 t-inv F
 -0.300000  0.200000 -0.300000      18 t-inv F
 -0.200000 -0.500000 -0.500000      18 t-inv F
  0.500000  0.000000  0.300000      18 t-inv F
  0.000000  0.400000  0.400000      19 t-inv F
  0.400000  0.000000  0.400000      19 t-inv F
 -0.400000 -0.400000  0.000000      19 t-inv F
 -0.400000  0.000000 -0.400000      19 t-inv F
  0.000000 -0.400000 -0.400000      19 t-inv F
  0.000000  0.500000  0.400000      20 t-inv F
  0.400000  0.000000  0.500000      20 t-inv F
 -0.400000 -0.400000  0.100000      20 t-inv F
 -0.500000 -0.100000 -0.500000      20 t-inv F
  0.400000  0.500000  0.000000      20 t-inv F
  0.100000 -0.400000 -0.400000      20 t-inv F
 -0.500000 -0.500000 -0.100000      20 t-inv F
  0.000000  0.400000  0.500000      20 t-inv F
 -0.400000  0.100000 -0.400000      20 t-inv F
 -0.100000 -0.500000 -0.500000      20 t-inv F
  0.500000  0.000000  0.400000      20 t-inv F
  0.000000  0.500000  0.500000      21 t-inv F
  0.500000  0.000000  0.500000      21 t-inv F
 -0.100000  0.000000  0.000000      22 t-inv F
  0.000000  0.000000 -0.100000      22 t-inv F
  0.000000 -0.100000  0.000000      22 t-inv F
  0.100000  0.200000  0.100000      23 t-inv F
  0.100000  0.100000  0.200000      23 t-inv F
 -0.100000  0.000000  0.100000      23 t-inv F
 -0.200000 -0.100000 -0.100000      23 t-inv F
 -0.100000  0.100000  0.000000      23 t-inv F
  0.000000  0.100000 -0.100000      23 t-inv F
  0.100000  0.000000 -0.100000      23 t-inv F
 -0.100000 -0.100000 -0.200000      23 t-inv F
 -0.100000 -0.200000 -0.100000      23 t-inv F
  0.000000 -0.100000  0.100000      23 t-inv F
  0.100000 -0.100000  0.000000      23 t-inv F
  0.100000  0.300000  0.100000      24 t-inv F
  0.100000  0.100000  0.300000      24 t-inv F
 -0.100000  0.000000  0.200000      24 t-inv F
 -0.300000 -0.200000 -0.200000      24 t-inv F
 -0.100000  0.200000  0.000000      24 t-inv F
  0.000000  0.200000 -0.100000      24 t-inv F
  0.200000  0.000000 -0.100000      24 t-inv F
 -0.200000 -0.200000 -0.300000      24 t-inv F
 -0.200000 -0.300000 -0.200000      24 t-inv F
  0.000000 -0.100000  0.200000      24 t-inv F
  0.200000 -0.100000  0.000000      24 t-inv F
  0.100000  0.400000  0.100000      25 t-inv F
  0.100000  0.100000  0.400000      25 t-inv F
 -0.100000  0.000000  0.300000      25 t-inv F
 -0.400000 -0.300000 -0.300000      25 t-inv F
 -0.100000  0.300000  0.000000      25 t-inv F
  0.000000  0.300000 -0.100000      25 t-inv F
  0.300000  0.000000 -0.100000      25 t-inv F
 -0.300000 -0.300000 -0.400000      25 t-inv F
 -0.300000 -0.400000 -0.300000      25 t-inv F
  0.000000 -0.100000  0.300000      25 t-inv F
  0.300000 -0.100000  0.000000      25 t-inv F
  0.100000  0.500000  0.100000      26 t-inv F
  0.100000  0.100000  0.500000      26 t-inv F
 -0.100000  0.000000  0.400000      26 t-inv F
 -0.500000 -0.400000 -0.400000      26 t-inv F
 -0.100000  0.400000  0.000000      26 t-inv F
  0.000000  0.400000 -0.100000      26 t-inv F
  0.400000  0.000000 -0.100000      26 t-inv F
 -0.400000 -0.400000 -0.500000      26 t-inv F
 -0.400000 -0.500000 -0.400000      26 t-inv F
  0.000000 -0.100000  0.400000      26 t-inv F
  0.400000 -0.100000  0.000000      26 t-inv F
  0.100000  0.200000  0.200000      27 t-inv F
  0.200000  0.100000  0.200000      27 t-inv F
 -0.200000 -0.100000  0.000000      27 t-inv F
 -0.200000  0.000000 -0.100000      27 t-inv F
 -0.100000  0.100000  0.100000      27 t-inv F
  0.100000  0.100000 -0.100000      27 t-inv F
  0.000000 -0.100000 -0.200000      27 t-inv F
 -0.100000  0.000000 -0.200000      27 t-inv F
 -0.100000 -0.200000  0.000000      27 t-inv F
  0.100000 -0.100000  0.100000      27 t-inv F
  0.000000 -0.200000 -0.100000      27 t-inv F
  0.100000  0.300000  0.200000      28 t-inv F
  0.200000  0.100000  0.300000      28 t-inv F
 -0.200000 -0.100000  0.100000      28 t-inv F
 -0.300000 -0.100000 -0.200000      28 t-inv F
 -0.100000  0.200000  0.100000      28 t-inv F
  0.100000  0.200000 -0.100000      28 t-inv F
  0.100000 -0.100000 -0.200000      28 t-inv F
 -0.200000 -0.100000 -0.300000      28 t-inv F
 -0.200000 -0.300000 -0.100000      28 t-inv F
  0.100000 -0.100000  0.200000      28 t-inv F
  0.100000 -0.200000 -0.100000      28 t-inv F
 -0.100000  0.100000  0.200000      28 t-inv F
 -0.200000  0.100000 -0.100000      28 t-inv F
 -0.300000 -0.200000 -0.100000      28 t-inv F
 -0.100000 -0.200000 -0.300000      28 t-inv F
  0.200000  0.100000 -0.100000      28 t-inv F
 -0.100000  0.100000 -0.200000      28 t-inv F
  0.200000 -0.100000  0.100000      28 t-inv F
 -0.100000 -0.200000  0.100000      28 t-inv F
 -0.100000 -0.300000 -0.200000      28 t-inv F
  0.300000  0.100000  0.200000      28 t-inv F
  0.200000  0.300000  0.100000      28 t-inv F
  0.100000  0.200000  0.300000      28 t-inv F
  0.100000  0.400000  0.200000      29 t-inv F
  0.200000  0.100000  0.400000      29 t-inv F
 -0.200000 -0.100000  0.200000      29 t-inv F
 -0.400000 -0.200000 -0.300000      29 t-inv F
 -0.100000  0.300000  0.100000      29 t-inv F
  0.100000  0.300000 -0.100000      29 t-inv F
  0.200000 -0.100000 -0.200000      29 t-inv F
 -0.300000 -0.200000 -0.400000      29 t-inv F
 -0.300000 -0.400000 -0.200000      29 t-inv F
  0.100000 -0.100000  0.300000      29 t-inv F
  0.200000 -0.200000 -0.100000      29 t-inv F
 -0.100000  0.100000  0.300000      29 t-inv F
 -0.200000  0.200000 -0.100000      29 t-inv F
 -0.400000 -0.300000 -0.200000      29 t-inv F
 -0.200000 -0.300000 -0.400000      29 t-inv F
  0.300000  0.100000 -0.100000      29 t-inv F
 -0.100000  0.200000 -0.200000      29 t-inv F
  0.300000 -0.100000  0.100000      29 t-inv F
 -0.100000 -0.200000  0.200000      29 t-inv F
 -0.200000 -0.400000 -0.300000      29 t-inv F
  0.400000  0.100000  0.200000      29 t-inv F
  0.200000  0.400000  0.100000      29 t-inv F
  0.100000  0.200000  0.400000      29 t-inv F
  0.100000  0.500000  0.200000      30 t-inv F
  0.200000  0.100000  0.500000      30 t-inv F
 -0.200000 -0.100000  0.300000      30 t-inv F
 -0.500000 -0.300000 -0.400000      30 t-inv F
 -0.100000  0.400000  0.100000      30 t-inv F
  0.100000  0.400000 -0.100000      30 t-inv F
  0.300000 -0.100000 -0.200000      30 t-inv F
 -0.400000 -0.300000 -0.500000      30 t-inv F
 -0.400000 -0.500000 -0.300000      30 t-inv F
  0.100000 -0.100000  0.400000      30 t-inv F
  0.300000 -0.200000 -0.100000      30 t-inv F
 -0.100000  0.100000  0.400000      30 t-inv F
 -0.200000  0.300000 -0.100000      30 t-inv F
 -0.500000 -0.400000 -0.300000      30 t-inv F
 -0.300000 -0.400000 -0.500000      30 t-inv F
  0.400000  0.100000 -0.100000      30 t-inv F
 -0.100000  0.300000 -0.200000      30 t-inv F
  0.400000 -0.100000  0.100000      30 t-inv F
 -0.100000 -0.200000  0.300000      30 t-inv F
 -0.300000 -0.500000 -0.400000      30 t-inv F
  0.500000  0.100000  0.200000      30 t-inv F
  0.200000  0.500000  0.100000      30 t-inv F
  0.100000  0.200000  0.500000      30 t-inv F
  0.100000  0.300000  0.300000      31 t-inv F
  0.300000  0.100000  0.300000      31 t-inv F
 -0.300000 -0.200000  0.000000      31 t-inv F
 -0.300000  0.000000 -0.200000      31 t-inv F
 -0.100000  0.200000  0.200000      31 t-inv F
  0.200000  0.200000 -0.100000      31 t-inv F
  0.000000 -0.200000 -0.300000      31 t-inv F
 -0.200000  0.000000 -0.300000      31 t-inv F
 -0.200000 -0.300000  0.000000      31 t-inv F
  0.200000 -0.100000  0.200000      31 t-inv F
  0.000000 -0.300000 -0.200000      31 t-inv F
  0.100000  0.400000  0.300000      32 t-inv F
  0.300000  0.100000  0.400000      32 t-inv F
 -0.300000 -0.200000  0.100000      32 t-inv F
 -0.400000 -0.100000 -0.300000      32 t-inv F
 -0.100000  0.300000  0.200000      32 t-inv F
  0.200000  0.300000 -0.100000      32 t-inv F
  0.100000 -0.200000 -0.300000      32 t-inv F
 -0.300000 -0.100000 -0.400000      32 t-inv F
 -0.300000 -0.400000 -0.100000      32 t-inv F
  0.200000 -0.100000  0.300000      32 t-inv F
  0.100000 -0.300000 -0.200000      32 t-inv F
 -0.100000  0.200000  0.300000      32 t-inv F
 -0.300000  0.100000 -0.200000      32 t-inv F
 -0.400000 -0.300000 -0.100000      32 t-inv F
 -0.100000 -0.300000 -0.400000      32 t-inv F
  0.300000  0.200000 -0.100000      32 t-inv F
 -0.200000  0.100000 -0.300000      32 t-inv F
  0.300000 -0.100000  0.200000      32 t-inv F
 -0.200000 -0.300000  0.100000      32 t-inv F
 -0.100000 -0.400000 -0.300000      32 t-inv F
  0.400000  0.100000  0.300000      32 t-inv F
  0.300000  0.400000  0.100000      32 t-inv F
  0.100000  0.300000  0.400000      32 t-inv F
  0.100000  0.500000  0.300000      33 t-inv F
  0.300000  0.100000  0.500000      33 t-inv F
 -0.300000 -0.200000  0.200000      33 t-inv F
 -0.500000 -0.200000 -0.400000      33 t-inv F
 -0.100000  0.400000  0.200000      33 t-inv F
  0.200000  0.400000 -0.100000      33 t-inv F
  0.200000 -0.200000 -0.300000      33 t-inv F
 -0.400000 -0.200000 -0.500000      33 t-inv F
 -0.400000 -0.500000 -0.200000      33 t-inv F
  0.200000 -0.100000  0.400000      33 t-inv F
  0.200000 -0.300000 -0.200000      33 t-inv F
 -0.100000  0.200000  0.400000      33 t-inv F
 -0.300000  0.200000 -0.200000      33 t-inv F
 -0.500000 -0.400000 -0.200000      33 t-inv F
 -0.200000 -0.400000 -0.500000      33 t-inv F
  0.400000  0.200000 -0.100000      33 t-inv F
 -0.200000  0.200000 -0.300000      33 t-inv F
  0.400000 -0.100000  0.200000      33 t-inv F
 -0.200000 -0.300000  0.200000      33 t-inv F
 -0.200000 -0.500000 -0.400000      33 t-inv F
  0.500000  0.100000  0.300000      33 t-inv F
  0.300000  0.500000  0.100000      33 t-inv F
  0.100000  0.300000  0.500000      33 t-inv F
  0.100000  0.400000  0.400000      34 t-inv F
  0.400000  0.100000  0.400000      34 t-inv F
 -0.400000 -0.300000  0.000000      34 t-inv F
 -0.400000  0.000000 -0.300000      34 t-inv F
 -0.100000  0.300000  0.300000      34 t-inv F
  0.300000  0.300000 -0.100000      34 t-inv F
  0.000000 -0.300000 -0.400000      34 t-inv F
 -0.300000  0.000000 -0.400000      34 t-inv F
 -0.300000 -0.400000  0.000000      34 t-inv F
  0.300000 -0.100000  0.300000      34 t-inv F
  0.000000 -0.400000 -0.300000      34 t-inv F
  0.100000  0.500000  0.400000      35 t-inv F
  0.400000  0.100000  0.500000      35 t-inv F
 -0.400000 -0.300000  0.100000      35 t-inv F
 -0.500000 -0.100000 -0.400000      35 t-inv F
 -0.100000  0.400000  0.300000      35 t-inv F
  0.300000  0.400000 -0.100000      35 t-inv F
  0.100000 -0.300000 -0.400000      35 t-inv F
 -0.400000 -0.100000 -0.500000      35 t-inv F
 -0.400000 -0.500000 -0.100000      35 t-inv F
  0.300000 -0.100000  0.400000      35 t-inv F
  0.100000 -0.400000 -0.300000      35 t-inv F
 -0.100000  0.300000  0.400000      35 t-inv F
 -0.400000  0.100000 -0.300000      35 t-inv F
 -0.500000 -0.400000 -0.100000      35 t-inv F
 -0.100000 -0.400000 -0.500000      35 t-inv F
  0.400000  0.300000 -0.100000      35 t-inv F
 -0.300000  0.100000 -0.400000      35 t-inv F
  0.400000 -0.100000  0.300000      35 t-inv F
 -0.300000 -0.400000  0.100000      35 t-inv F
 -0.100000 -0.500000 -0.400000      35 t-inv F
  0.500000  0.100000  0.400000      35 t-inv F
  0.400000  0.500000  0.100000      35 t-inv F
  0.100000  0.400000  0.500000      35 t-inv F
  0.100000  0.500000  0.500000      36 t-inv F
  0.500000  0.100000  0.500000      36 t-inv F
 -0.500000 -0.400000  0.000000      36 t-inv F
 -0.500000  0.000000 -0.400000      36 t-inv F
 -0.100000  0.400000  0.400000      36 t-inv F
  0.400000  0.400000 -0.100000      36 t-inv F
  0.000000 -0.400000 -0.500000      36 t-inv F
 -0.400000  0.000000 -0.500000      36 t-inv F
 -0.400000 -0.500000  0.000000      36 t-inv F
  0.400000 -0.100000  0.400000      36 t-inv F
  0.000000 -0.500000 -0.400000      36 t-inv F
 -0.200000  0.000000  0.000000      37 t-inv F
  0.000000  0.000000 -0.200000      37 t-inv F
  0.000000 -0.200000  0.000000      37 t-inv F
  0.200000  0.300000  0.200000      38 t-inv F
  0.200000  0.200000  0.300000      38 t-inv F
 -0.200000  0.000000  0.100000      38 t-inv F
 -0.300000 -0.100000 -0.100000      38 t-inv F
 -0.200000  0.100000  0.000000      38 t-inv F
  0.000000  0.100000 -0.200000      38 t-inv F
  0.100000  0.000000 -0.200000      38 t-inv F
 -0.100000 -0.100000 -0.300000      38 t-inv F
 -0.100000 -0.300000 -0.100000      38 t-inv F
  0.000000 -0.200000  0.100000      38 t-inv F
  0.100000 -0.200000  0.000000      38 t-inv F
  0.200000  0.400000  0.200000      39 t-inv F
  0.200000  0.200000  0.400000      39 t-inv F
 -0.200000  0.000000  0.200000      39 t-inv F
 -0.400000 -0.200000 -0.200000      39 t-inv F
 -0.200000  0.200000  0.000000      39 t-inv F
  0.000000  0.200000 -0.200000      39 t-inv F
  0.200000  0.000000 -0.200000      39 t-inv F
 -0.200000 -0.200000 -0.400000      39 t-inv F
 -0.200000 -0.400000 -0.200000      39 t-inv F
  0.000000 -0.200000  0.200000      39 t-inv F
  0.200000 -0.200000  0.000000      39 t-inv F
  0.200000  0.500000  0.200000      40 t-inv F
  0.200000  0.200000  0.500000      40 t-inv F
 -0.200000  0.000000  0.300000      40 t-inv F
 -0.500000 -0.300000 -0.300000      40 t-inv F
 -0.200000  0.300000  0.000000      40 t-inv F
  0.000000  0.300000 -0.200000      40 t-inv F
  0.300000  0.000000 -0.200000      40 t-inv F
 -0.300000 -0.300000 -0.500000      40 t-inv F
 -0.300000 -0.500000 -0.300000      40 t-inv F
  0.000000 -0.200000  0.300000      40 t-inv F
  0.300000 -0.200000  0.000000      40 t-inv F
  0.200000  0.300000  0.300000      41 t-inv F
  0.300000  0.200000  0.300000      41 t-inv F
 -0.300000 -0.100000  0.000000      41 t-inv F
 -0.300000  0.000000 -0.100000      41 t-inv F
 -0.200000  0.100000  0.100000      41 t-inv F
  0.100000  0.100000 -0.200000      41 t-inv F
  0.000000 -0.100000 -0.300000      41 t-inv F
 -0.100000  0.000000 -0.300000      41 t-inv F
 -0.100000 -0.300000  0.000000      41 t-inv F
  0.100000 -0.200000  0.100000      41 t-inv F
  0.000000 -0.300000 -0.100000      41 t-inv F
  0.200000  0.400000  0.300000      42 t-inv F
  0.300000  0.200000  0.400000      42 t-inv F
 -0.300000 -0.100000  0.100000      42 t-inv F
 -0.400000 -0.100000 -0.200000      42 t-inv F
 -0.200000  0.200000  0.100000      42 t-inv F
  0.100000  0.200000 -0.200000      42 t-inv F
  0.100000 -0.100000 -0.300000      42 t-inv F
 -0.200000 -0.100000 -0.400000      42 t-inv F
 -0.200000 -0.400000 -0.100000      42 t-inv F
  0.100000 -0.200000  0.200000      42 t-inv F
  0.100000 -0.300000 -0.100000      42 t-inv F
 -0.200000  0.100000  0.200000      42 t-inv F
 -0.300000  0.100000 -0.100000      42 t-inv F
 -0.400000 -0.200000 -0.100000      42 t-inv F
 -0.100000 -0.200000 -0.400000      42 t-inv F
  0.200000  0.100000 -0.200000      42 t-inv F
 -0.100000  0.100000 -0.300000      42 t-inv F
  0.200000 -0.200000  0.100000      42 t-inv F
 -0.100000 -0.300000  0.100000      42 t-inv F
 -0.100000 -0.400000 -0.200000      42 t-inv F
  0.400000  0.200000  0.300000      42 t-inv F
  0.300000  0.400000  0.200000      42 t-inv F
  0.200000  0.300000  0.400000      42 t-inv F
  0.200000  0.500000  0.300000      43 t-inv F
  0.300000  0.200000  0.500000      43 t-inv F
 -0.300000 -0.100000  0.200000      43 t-inv F
 -0.500000 -0.200000 -0.300000      43 t-inv F
 -0.200000  0.300000  0.100000      43 t-inv F
  0.100000  0.300000 -0.200000      43 t-inv F
  0.200000 -0.100000 -0.300000      43 t-inv F
 -0.300000 -0.200000 -0.500000      43 t-inv F
 -0.300000 -0.500000 -0.200000      43 t-inv F
  0.100000 -0.200000  0.300000      43 t-inv F
  0.200000 -0.300000 -0.100000      43 t-inv F
 -0.200000  0.100000  0.300000      43 t-inv F
 -0.300000  0.200000 -0.100000      43 t-inv F
 -0.500000 -0.300000 -0.200000      43 t-inv F
 -0.200000 -0.300000 -0.500000      43 t-inv F
  0.300000  0.100000 -0.200000      43 t-inv F
 -0.100000  0.200000 -0.300000      43 t-inv F
  0.300000 -0.200000  0.100000      43 t-inv F
 -0.100000 -0.300000  0.200000      43 t-inv F
 -0.200000 -0.500000 -0.300000      43 t-inv F
  0.500000  0.200000  0.300000      43 t-inv F
  0.300000  0.500000  0.200000      43 t-inv F
  0.200000  0.300000  0.500000      43 t-inv F
  0.200000  0.400000  0.400000      44 t-inv F
  0.400000  0.200000  0.400000      44 t-inv F
 -0.400000 -0.200000  0.000000      44 t-inv F
 -0.400000  0.000000 -0.200000      44 t-inv F
 -0.200000  0.200000  0.200000      44 t-inv F
  0.200000  0.200000 -0.200000      44 t-inv F
  0.000000 -0.200000 -0.400000      44 t-inv F
 -0.200000  0.000000 -0.400000      44 t-inv F
 -0.200000 -0.400000  0.000000      44 t-inv F
  0.200000 -0.200000  0.200000      44 t-inv F
  0.000000 -0.400000 -0.200000      44 t-inv F
  0.200000  0.500000  0.400000      45 t-inv F
  0.400000  0.200000  0.500000      45 t-inv F
 -0.400000 -0.200000  0.100000      45 t-inv F
 -0.500000 -0.100000 -0.300000      45 t-inv F
 -0.200000  0.300000  0.200000      45 t-inv F
  0.200000  0.300000 -0.200000      45 t-inv F
  0.100000 -0.200000 -0.400000      45 t-inv F
 -0.300000 -0.100000 -0.500000      45 t-inv F
 -0.300000 -0.500000 -0.100000      45 t-inv F
  0.200000 -0.200000  0.300000      45 t-inv F
  0.100000 -0.400000 -0.200000      45 t-inv F
 -0.200000  0.200000  0.300000      45 t-inv F
 -0.400000  0.100000 -0.200000      45 t-inv F
 -0.500000 -0.300000 -0.100000      45 t-inv F
 -0.100000 -0.300000 -0.500000      45 t-inv F
  0.300000  0.200000 -0.200000      45 t-inv F
 -0.200000  0.100000 -0.400000      45 t-inv F
  0.300000 -0.200000  0.200000      45 t-inv F
 -0.200000 -0.400000  0.100000      45 t-inv F
 -0.100000 -0.500000 -0.300000      45 t-inv F
  0.500000  0.200000  0.400000      45 t-inv F
  0.400000  0.500000  0.200000      45 t-inv F
  0.200000  0.400000  0.500000      45 t-inv F
  0.200000  0.500000  0.500000      46 t-inv F
  0.500000  0.200000  0.500000      46 t-inv F
 -0.500000 -0.300000  0.000000      46 t-inv F
 -0.500000  0.000000 -0.300000      46 t-inv F
 -0.200000  0.300000  0.300000      46 t-inv F
  0.300000  0.300000 -0.200000      46 t-inv F
  0.000000 -0.300000 -0.500000      46 t-inv F
 -0.300000  0.000000 -0.500000      46 t-inv F
 -0.300000 -0.500000  0.000000      46 t-inv F
  0.300000 -0.200000  0.300000      46 t-inv F
  0.000000 -0.500000 -0.300000      46 t-inv F
 -0.300000  0.000000  0.000000      47 t-inv F
  0.000000  0.000000 -0.300000      47 t-inv F
  0.000000 -0.300000  0.000000      47 t-inv F
  0.300000  0.400000  0.300000      48 t-inv F
  0.300000  0.300000  0.400000      48 t-inv F
 -0.300000  0.000000  0.100000      48 t-inv F
 -0.400000 -0.100000 -0.100000      48 t-inv F
 -0.300000  0.100000  0.000000      48 t-inv F
  0.000000  0.100000 -0.300000      48 t-inv F
  0.100000  0.000000 -0.300000      48 t-inv F
 -0.100000 -0.100000 -0.400000      48 t-inv F
 -0.100000 -0.400000 -0.100000      48 t-inv F
  0.000000 -0.300000  0.100000      48 t-inv F
  0.100000 -0.300000  0.000000      48 t-inv F
  0.300000  0.500000  0.300000      49 t-inv F
  0.300000  0.300000  0.500000      49 t-inv F
 -0.300000  0.000000  0.200000      49 t-inv F
 -0.500000 -0.200000 -0.200000      49 t-inv F
 -0.300000  0.200000  0.000000      49 t-inv F
  0.000000  0.200000 -0.300000      49 t-inv F
  0.200000  0.000000 -0.300000      49 t-inv F
 -0.200000 -0.200000 -0.500000      49 t-inv F
 -0.200000 -0.500000 -0.200000      49 t-inv F
  0.000000 -0.300000  0.200000      49 t-inv F
  0.200000 -0.300000  0.000000      49 t-inv F
  0.300000  0.400000  0.400000      50 t-inv F
  0.400000  0.300000  0.400000      50 t-inv F
 -0.400000 -0.100000  0.000000      50 t-inv F
 -0.400000  0.000000 -0.100000      50 t-inv F
 -0.300000  0.100000  0.100000      50 t-inv F
  0.100000  0.100000 -0.300000      50 t-inv F
  0.000000 -0.100000 -0.400000      50 t-inv F
 -0.100000  0.000000 -0.400000      50 t-inv F
 -0.100000 -0.400000  0.000000      50 t-inv F
  0.100000 -0.300000  0.100000      50 t-inv F
  0.000000 -0.400000 -0.100000      50 t-inv F
  0.300000  0.500000  0.400000      51 t-inv F
  0.400000  0.300000  0.500000      51 t-inv F
 -0.400000 -0.100000  0.100000      51 t-inv F
 -0.500000 -0.100000 -0.200000      51 t-inv F
 -0.300000  0.200000  0.100000      51 t-inv F
  0.100000  0.200000 -0.300000      51 t-inv F
  0.100000 -0.100000 -0.400000      51 t-inv F
 -0.200000 -0.100000 -0.500000      51 t-inv F
 -0.200000 -0.500000 -0.100000      51 t-inv F
  0.100000 -0.300000  0.200000      51 t-inv F
  0.100000 -0.400000 -0.100000      51 t-inv F
 -0.300000  0.100000  0.200000      51 t-inv F
 -0.400000  0.100000 -0.100000      51 t-inv F
 -0.500000 -0.200000 -0.100000      51 t-inv F
 -0.100000 -0.200000 -0.500000      51 t-inv F
  0.200000  0.100000 -0.300000      51 t-inv F
 -0.100000  0.100000 -0.400000      51 t-inv F
  0.200000 -0.300000  0.100000      51 t-inv F
 -0.100000 -0.400000  0.100000      51 t-inv F
 -0.100000 -0.500000 -0.200000      51 t-inv F
  0.500000  0.300000  0.400000      51 t-inv F
  0.400000  0.500000  0.300000      51 t-inv F
  0.300000  0.400000  0.500000      51 t-inv F
  0.300000  0.500000  0.500000      52 t-inv F
  0.500000  0.300000  0.500000      52 t-inv F
 -0.500000 -0.200000  0.000000      52 t-inv F
 -0.500000  0.000000 -0.200000      52 t-inv F
 -0.300000  0.200000  0.200000      52 t-inv F
  0.200000  0.200000 -0.300000      52 t-inv F
  0.000000 -0.200000 -0.500000      52 t-inv F
 -0.200000  0.000000 -0.500000      52 t-inv F
 -0.200000 -0.500000  0.000000      52 t-inv F
  0.200000 -0.300000  0.200000      52 t-inv F
  0.000000 -0.500000 -0.200000      52 t-inv F
 -0.400000  0.000000  0.000000      53 t-inv F
  0.000000  0.000000 -0.400000      53 t-inv F
  0.000000 -0.400000  0.000000      53 t-inv F
  0.400000  0.500000  0.400000      54 t-inv F
  0.400000  0.400000  0.500000      54 t-inv F
 -0.400000  0.000000  0.100000      54 t-inv F
 -0.500000 -0.100000 -0.100000      54 t-inv F
 -0.400000  0.100000  0.000000      54 t-inv F
  0.000000  0.100000 -0.400000      54 t-inv F
  0.100000  0.000000 -0.400000      54 t-inv F
 -0.100000 -0.100000 -0.500000      54 t-inv F
 -0.100000 -0.500000 -0.100000      54 t-inv F
  0.000000 -0.400000  0.100000      54 t-inv F
  0.100000 -0.400000  0.000000      54 t-inv F
  0.400000  0.500000  0.500000      55 t-inv F
  0.500000  0.400000  0.500000      55 t-inv F
 -0.500000 -0.100000  0.000000      55 t-inv F
 -0.500000  0.000000 -0.100000      55 t-inv F
 -0.400000  0.100000  0.100000      55 t-inv F
  0.100000  0.100000 -0.400000      55 t-inv F
  0.000000 -0.100000 -0.500000      55 t-inv F
 -0.100000  0.000000 -0.500000      55 t-inv F
 -0.100000 -0.500000  0.000000      55 t-inv F
  0.100000 -0.400000  0.100000      55 t-inv F
  0.000000 -0.500000 -0.100000      55 t-inv F


--------------------------------------------------------------------------------------------------------




 Dimension of arrays:
   k-points           NKPTS =    252   k-points in BZ     NKDIM =    860   number of bands    NBANDS=     48
   number of dos      NEDOS =   1000   number of ions     NIONS =      2
   non local maximal  LDIM  =      4   non local SUM 2l+1 LMDIM =      8
   total plane-waves  NPLWV =  13824
   max r-space proj   IRMAX =      1   max aug-charges    IRDMAX=  22206
   dimension x,y,z NGX =    24 NGY =   24 NGZ =   24
   dimension x,y,z NGXF=    48 NGYF=   48 NGZF=   48
   support grid    NGXF=    48 NGYF=   48 NGZF=   48
   ions per type =               1   1
 NGX,Y,Z   is equivalent  to a cutoff of  12.88, 12.88, 12.88 a.u.
 NGXF,Y,Z  is equivalent  to a cutoff of  25.77, 25.77, 25.77 a.u.


 I would recommend the setting:
   dimension x,y,z NGX =    23 NGY =   23 NGZ =   23
 SYSTEM =  unknown system                          
 POSCAR =  Si4 C4                                  

 Startparameter for this run:
   NWRITE =      2    write-flag & timer
   PREC   = accura    normal or accurate (medium, high low for compatibility)
   ISTART =      1    job   : 0-new  1-cont  2-samecut
   ICHARG =     11    charge: 1-file 2-atom 10-const
   ISPIN  =      1    spin polarized calculation?
   LNONCOLLINEAR =      F non collinear calculations
   LSORBIT =      F    spin-orbit coupling
   INIWAV =      1    electr: 0-lowe 1-rand  2-diag
   LASPH  =      F    aspherical Exc in radial PAW
   METAGGA=      F    non-selfconsistent MetaGGA calc.

 Electronic Relaxation 1
   ENCUT  =  500.0 eV  36.75 Ry    6.06 a.u.   5.65  5.65  5.65*2*pi/ulx,y,z
   ENINI  =  500.0     initial cutoff
   ENAUG  =  644.9 eV  augmentation charge cutoff
   NELM   =    300;   NELMIN=  5; NELMDL=  0     # of ELM steps 
   EDIFF  = 0.1E-05   stopping-criterion for ELM
   LREAL  =      F    real-space projection
   NLSPLINE    = F    spline interpolate recip. space projectors
   LCOMPAT=      F    compatible to vasp.4.4
   GGA_COMPAT  = T    GGA compatible to vasp.4.4-vasp.4.6
   LMAXPAW     = -100 max onsite density
   LMAXMIX     =    2 max onsite mixed and CHGCAR
   VOSKOWN=      0    Vosko Wilk Nusair interpolation
   ROPT   =    0.00000   0.00000
 Ionic relaxation
   EDIFFG = 0.1E-04   stopping-criterion for IOM
   NSW    =      0    number of steps for IOM
   NBLOCK =      1;   KBLOCK =      1    inner block; outer block 
   IBRION =     -1    ionic relax: 0-MD 1-quasi-New 2-CG
   NFREE  =      0    steps in history (QN), initial steepest desc. (CG)
   ISIF   =      0    stress and relaxation
   IWAVPR =     10    prediction:  0-non 1-charg 2-wave 3-comb
   ISYM   =      3    0-nonsym 1-usesym 2-fastsym
   LCORR  =      T    Harris-Foulkes like correction to forces

   POTIM  = 0.5000    time-step for ionic-motion
   TEIN   =    0.0    initial temperature
   TEBEG  =    0.0;   TEEND  =   0.0 temperature during run
   SMASS  =  -3.00    Nose mass-parameter (am)
   estimated Nose-frequenzy (Omega)   =  0.10E-29 period in steps =****** mass=  -0.219E-27a.u.
   SCALEE = 1.0000    scale energy and forces
   NPACO  =    256;   APACO  = 16.0  distance and # of slots for P.C.
   PSTRESS=    0.0 pullay stress

  Mass of Ions in am
   POMASS =  28.09 12.01
  Ionic Valenz
   ZVAL   =   4.00  4.00
  Atomic Wigner-Seitz radii
   RWIGS  =  -1.00 -1.00
  virtual crystal weights 
   VCA    =   1.00  1.00
   NELECT =       8.0000    total number of electrons
   NUPDOWN=      -1.0000    fix difference up-down

 DOS related values:
   EMIN   =  10.00;   EMAX   =-10.00  energy-range for DOS
   EFERMI =   0.00
   ISMEAR =     0;   SIGMA  =   0.05  broadening in eV -4-tet -1-fermi 0-gaus

 Electronic relaxation 2 (details)
   IALGO  =     58    algorithm
   LDIAG  =      T    sub-space diagonalisation (order eigenvalues)
   LSUBROT=      F    optimize rotation matrix (better conditioning)
   TURBO    =      0    0=normal 1=particle mesh
   IRESTART =      0    0=no restart 2=restart with 2 vectors
   NREBOOT  =      0    no. of reboots
   NMIN     =      0    reboot dimension
   EREF     =   0.00    reference energy to select bands
   IMIX   =      4    mixing-type and parameters
     AMIX     =   0.40;   BMIX     =  1.00
     AMIX_MAG =   1.60;   BMIX_MAG =  1.00
     AMIN     =   0.10
     WC   =   100.;   INIMIX=   1;  MIXPRE=   1;  MAXMIX= -45

 Intra band minimization:
   WEIMIN = 0.0000     energy-eigenvalue tresh-hold
   EBREAK =  0.52E-08  absolut break condition
   DEPER  =   0.30     relativ break condition  

   TIME   =   0.40     timestep for ELM

  volume/ion in A,a.u.               =      10.50        70.86
  Fermi-wavevector in a.u.,A,eV,Ry     =   1.186755  2.242641 19.162269  1.408387
  Thomas-Fermi vector in A             =   2.322921
 
 Write flags
   LWAVE  =      T    write WAVECAR
   LCHARG =      T    write CHGCAR
   LVTOT  =      F    write LOCPOT, total local potential
   LVHAR  =      F    write LOCPOT, Hartree potential only
   LELF   =      F    write electronic localiz. function (ELF)
   LORBIT =     11    0 simple, 1 ext, 2 COOP (PROOUT)


 Dipole corrections
   LMONO  =      F    monopole corrections only (constant potential shift)
   LDIPOL =      F    correct potential (dipole corrections)
   IDIPOL =      0    1-x, 2-y, 3-z, 4-all directions 
   EPSILON=  1.0000000 bulk dielectric constant

 Exchange correlation treatment:
   GGA     =    PE    GGA type
   LEXCH   =     8    internal setting for exchange type
   VOSKOWN=      0    Vosko Wilk Nusair interpolation
   EXXOEP  =     0    0=HF, 1=EXX-LHF (local Hartree Fock) 2=EXX OEP
   LHFCALC =     T    Hartree Fock is set to
   LSYMGRAD=     F    symmetrize gradient (conserves proper symmetry)
   PRECFOCK=normal    Normal, Fast or Accurate (Low or Medium for compatibility)
   LRHFCALC=     F    long range Hartree Fock
   LRSCOR  =     F    long range correlation only (use DFT for short range part)
   LTHOMAS =     F    Thomas Fermi screening in HF
   LMODELHF=     F    short range full HF, long range fraction AEXX
   ENCUT4O =  -1.0   cutoff for four orbital integrals eV
   LMAXFOCK=     4    L truncation for augmentation on plane wave grid
   LMAXFOCKAE=  -1    L truncation for all-electron charge restoration on plane wave grid
   NMAXFOCKAE=   1    number of basis functions for all-electron charge restoration
   LFOCKAEDFT=     F  apply the AE augmentation even for DFT
   NKREDX  =     1    reduce k-point grid by
   NKREDY  =     1    reduce k-point grid by
   NKREDZ  =     1    reduce k-point grid by
   SHIFTRED=     F    shift reduced grid of Gamma
   HFKIDENT=     F    idential grid for each k-point
   ODDONLY =     F    use only odd q-grid points
   EVENONLY=     F    use only even q-grid points
   HFALPHA =   -1.0000 decay constant for conv. correction
   MCALPHA =    0.0000 extent of test-charge in conv. correction in multipole expansion
   AEXX    =    0.2500 exact exchange contribution
   HFSCREEN=    0.2000 screening length (either q_TF or 0.3 A-1)
   HFSCREENC=   0.2000 screening length for correlation (either q_TF or 0.3 A-1)
   HFRCUT  =    0.0000 spherical cutoff for potential kernel
   ALDAX   =    0.7500 LDA exchange part
   AGGAX   =    0.7500 GGA exchange part
   ALDAC   =    1.0000 LDA correlation
   AGGAC   =    1.0000 GGA correlation
   NBANDSGWLOW=     1    first orbital included in HF term
   ENCUTFOCK=  -1.0 apply spherical cutoff to Coloumb kernel
 Linear response parameters
   LEPSILON=     F    determine dielectric tensor
   LRPA    =     F    only Hartree local field effects (RPA)
   LNABLA  =     F    use nabla operator in PAW spheres
   LVEL    =     F    velocity operator in full k-point grid
   LINTERFAST=   F  fast interpolation
   KINTER  =     0    interpolate to denser k-point grid
   CSHIFT  =0.1000    complex shift for real part using Kramers Kronig
   OMEGAMAX=  -1.0    maximum frequency
   DEG_THRESHOLD= 0.2000000E-02 threshold for treating states as degnerate
   RTIME   =    0.100 relaxation time in fs

 Orbital magnetization related:
   ORBITALMAG=     F  switch on orbital magnetization
   LCHIMAG   =     F  perturbation theory with respect to B field
   DQ        =  0.001000  dq finite difference perturbation B field



--------------------------------------------------------------------------------------------------------


 Static calculation
 charge density and potential remain constant during run
 non-spin polarized calculation
 Conjugate gradient for all bands (Freysoldt, et al. PRB 79, 241103 (2009))
 preconditioned conjugated gradient   charged. constant during bandupdate  
 perform sub-space diagonalisation
    before iterative eigenvector-optimisation
 no mixing
 using additional bands           44
 reciprocal scheme for non local part
 use partial core corrections
 calculate Harris-corrections to forces 
   (improved forces if not selfconsistent)
 use gradient corrections 
 WARNING: stress and forces are not correct
  (second derivative of E(xc) not defined)
 use of overlap-Matrix (Vanderbilt PP)
 Gauss-broadening in eV      SIGMA  =   0.05


--------------------------------------------------------------------------------------------------------


  energy-cutoff  :      500.00
  volume of cell :       21.00
      direct lattice vectors                 reciprocal lattice vectors
     0.000000000  2.189780000  2.189780000    -0.228333440  0.228333440  0.228333440
     2.189780000  0.000000000  2.189780000     0.228333440 -0.228333440  0.228333440
     2.189780000  2.189780000  0.000000000     0.228333440  0.228333440 -0.228333440

  length of vectors
     3.096816575  3.096816575  3.096816575     0.395485119  0.395485119  0.395485119


 
 old parameters found on file WAVECAR:
  energy-cutoff  :      520.00
  volume of cell :       21.00
      direct lattice vectors                 reciprocal lattice vectors
     0.000000000  2.189780000  2.189780000    -0.228333440  0.228333440  0.228333440
     2.189780000  0.000000000  2.189780000     0.228333440 -0.228333440  0.228333440
     2.189780000  2.189780000  0.000000000     0.228333440  0.228333440 -0.228333440

  length of vectors

 
 k-points in units of 2pi/SCALE and weight: 10	10	10	56	196	12	20	8	26	24	10	10	20	8
   0.00000000  0.00000000  0.00000000       0.001
  -0.02283334  0.02283334  0.02283334       0.006
  -0.04566669  0.04566669  0.04566669       0.006
  -0.06850003  0.06850003  0.06850003       0.006
  -0.09133338  0.09133338  0.09133338       0.006
  -0.11416672  0.11416672  0.11416672       0.003
   0.00000000  0.00000000  0.04566669       0.012
  -0.02283334  0.02283334  0.06850003       0.024
  -0.04566669  0.04566669  0.09133338       0.024
  -0.06850003  0.06850003  0.11416672       0.024
  -0.09133338  0.09133338  0.13700006       0.012
   0.00000000  0.00000000  0.09133338       0.012
  -0.02283334  0.02283334  0.11416672       0.024
  -0.04566669  0.04566669  0.13700006       0.024
  -0.06850003  0.06850003  0.15983341       0.012
   0.00000000  0.00000000  0.13700006       0.012
  -0.02283334  0.02283334  0.15983341       0.024
  -0.04566669  0.04566669  0.18266675       0.012
   0.00000000  0.00000000  0.18266675       0.012
  -0.02283334  0.02283334  0.20550010       0.012
   0.00000000  0.00000000  0.22833344       0.003
   0.02283334  0.02283334  0.02283334       0.008
   0.00000000  0.04566669  0.04566669       0.024
  -0.02283334  0.06850003  0.06850003       0.024
  -0.04566669  0.09133338  0.09133338       0.024
  -0.06850003  0.11416672  0.11416672       0.012
   0.02283334  0.02283334  0.06850003       0.024
   0.00000000  0.04566669  0.09133338       0.048
  -0.02283334  0.06850003  0.11416672       0.048
  -0.04566669  0.09133338  0.13700006       0.024
   0.02283334  0.02283334  0.11416672       0.024
   0.00000000  0.04566669  0.13700006       0.048
  -0.02283334  0.06850003  0.15983341       0.024
   0.02283334  0.02283334  0.15983341       0.024
   0.00000000  0.04566669  0.18266675       0.024
   0.02283334  0.02283334  0.20550010       0.006
   0.04566669  0.04566669  0.04566669       0.008
   0.02283334  0.06850003  0.06850003       0.024
   0.00000000  0.09133338  0.09133338       0.024
  -0.02283334  0.11416672  0.11416672       0.012
   0.04566669  0.04566669  0.09133338       0.024
   0.02283334  0.06850003  0.11416672       0.048
   0.00000000  0.09133338  0.13700006       0.024
   0.04566669  0.04566669  0.13700006       0.024
   0.02283334  0.06850003  0.15983341       0.024
   0.04566669  0.04566669  0.18266675       0.006
   0.06850003  0.06850003  0.06850003       0.008
   0.04566669  0.09133338  0.09133338       0.024
   0.02283334  0.11416672  0.11416672       0.012
   0.06850003  0.06850003  0.11416672       0.024
   0.04566669  0.09133338  0.13700006       0.024
   0.06850003  0.06850003  0.15983341       0.006
   0.09133338  0.09133338  0.09133338       0.008
   0.06850003  0.11416672  0.11416672       0.012
   0.09133338  0.09133338  0.13700006       0.006
   0.11416672  0.11416672  0.11416672       0.001
   0.00000000  0.00000000  0.00000000       0.000
   0.00000000  0.01201765  0.00000000       0.000
   0.00000000  0.02403529  0.00000000       0.000
   0.00000000  0.03605248  0.00000000       0.000
   0.00000000  0.04807013  0.00000000       0.000
   0.00000000  0.06008777  0.00000000       0.000
   0.00000000  0.07210542  0.00000000       0.000
   0.00000000  0.08412306  0.00000000       0.000
   0.00000000  0.09614025  0.00000000       0.000
   0.00000000  0.10815790  0.00000000       0.000
   0.00000000  0.12017554  0.00000000       0.000
   0.00000000  0.13219319  0.00000000       0.000
   0.00000000  0.14421038  0.00000000       0.000
   0.00000000  0.15622802  0.00000000       0.000
   0.00000000  0.16824567  0.00000000       0.000
   0.00000000  0.18026331  0.00000000       0.000
   0.00000000  0.19228096  0.00000000       0.000
   0.00000000  0.20429815  0.00000000       0.000
   0.00000000  0.21631579  0.00000000       0.000
   0.00000000  0.22833344  0.00000000       0.000
   0.00000000  0.22833344  0.00000000       0.000
   0.00815470  0.22833344  0.00815470       0.000
   0.01630963  0.22833321  0.01630963       0.000
   0.02446433  0.22833321  0.02446433       0.000
   0.03261903  0.22833367  0.03261903       0.000
   0.04077373  0.22833367  0.04077373       0.000
   0.04892866  0.22833344  0.04892866       0.000
   0.05708336  0.22833344  0.05708336       0.000
   0.17125008  0.17125008  0.00000000       0.000
   0.16440008  0.16440008  0.00000000       0.000
   0.15755007  0.15755007  0.00000000       0.000
   0.15070007  0.15070007  0.00000000       0.000
   0.14385007  0.14385007  0.00000000       0.000
   0.13700006  0.13700006  0.00000000       0.000
   0.13015006  0.13015006  0.00000000       0.000
   0.12330006  0.12330006  0.00000000       0.000
   0.11645005  0.11645005  0.00000000       0.000
   0.10960005  0.10960005  0.00000000       0.000
   0.10275005  0.10275005  0.00000000       0.000
   0.09590004  0.09590004  0.00000000       0.000
   0.08905004  0.08905004  0.00000000       0.000
   0.08220004  0.08220004  0.00000000       0.000
   0.07535004  0.07535004  0.00000000       0.000
   0.06850003  0.06850003  0.00000000       0.000
   0.06165003  0.06165003  0.00000000       0.000
   0.05480003  0.05480003  0.00000000       0.000
   0.04795002  0.04795002  0.00000000       0.000
   0.04110002  0.04110002  0.00000000       0.000
   0.03425002  0.03425002  0.00000000       0.000
   0.02740001  0.02740001  0.00000000       0.000
   0.02055001  0.02055001  0.00000000       0.000
   0.01370001  0.01370001  0.00000000       0.000
   0.00685000  0.00685000  0.00000000       0.000
   0.00000000  0.00000000  0.00000000       0.000
   0.00000000  0.00000000  0.00000000       0.000
   0.00496374  0.00496374  0.00496374       0.000
   0.00992748  0.00992748  0.00992748       0.000
   0.01489122  0.01489122  0.01489122       0.000
   0.01985519  0.01985519  0.01985519       0.000
   0.02481893  0.02481893  0.02481893       0.000
   0.02978267  0.02978267  0.02978267       0.000
   0.03474641  0.03474641  0.03474641       0.000
   0.03971015  0.03971015  0.03971015       0.000
   0.04467389  0.04467389  0.04467389       0.000
   0.04963763  0.04963763  0.04963763       0.000
   0.05460138  0.05460138  0.05460138       0.000
   0.05956534  0.05956534  0.05956534       0.000
   0.06452909  0.06452909  0.06452909       0.000
   0.06949283  0.06949283  0.06949283       0.000
   0.07445657  0.07445657  0.07445657       0.000
   0.07942031  0.07942031  0.07942031       0.000
   0.08438405  0.08438405  0.08438405       0.000
   0.08934779  0.08934779  0.08934779       0.000
   0.09431153  0.09431153  0.09431153       0.000
   0.09927550  0.09927550  0.09927550       0.000
   0.10423924  0.10423924  0.10423924       0.000
   0.10920298  0.10920298  0.10920298       0.000
   0.11416672  0.11416672  0.11416672       0.000
   0.11416672  0.11416672  0.11416672       0.000
   0.11416672  0.12685201  0.10148143       0.000
   0.11416672  0.13953731  0.08879613       0.000
   0.11416672  0.15222214  0.07611130       0.000
   0.11416672  0.16490743  0.06342601       0.000
   0.11416672  0.17759273  0.05074071       0.000
   0.11416672  0.19027802  0.03805542       0.000
   0.11416672  0.20296285  0.02537059       0.000
   0.11416672  0.21564815  0.01268529       0.000
   0.11416672  0.22833344  0.00000000       0.000
   0.11416672  0.22833344  0.00000000       0.000
   0.10148143  0.22833344  0.00000000       0.000
   0.08879613  0.22833344  0.00000000       0.000
   0.07611130  0.22833344  0.00000000       0.000
   0.06342601  0.22833344 -0.00000000       0.000
   0.05074071  0.22833344  0.00000000       0.000
   0.03805542  0.22833344  0.00000000       0.000
   0.02537059  0.22833344  0.00000000       0.000
   0.01268529  0.22833344  0.00000000       0.000
   0.00000000  0.22833344  0.00000000       0.000
   0.00000000  0.00000000  0.00000000       0.000
   0.00000000 -0.01201765  0.00000000       0.000
   0.00000000 -0.02403529  0.00000000       0.000
   0.00000000 -0.03605248  0.00000000       0.000
   0.00000000 -0.04807013  0.00000000       0.000
   0.00000000 -0.06008777  0.00000000       0.000
   0.00000000 -0.07210542  0.00000000       0.000
   0.00000000 -0.08412306  0.00000000       0.000
   0.00000000 -0.09614025  0.00000000       0.000
   0.00000000 -0.10815790  0.00000000       0.000
   0.00000000 -0.12017554  0.00000000       0.000
   0.00000000 -0.13219319  0.00000000       0.000
   0.00000000 -0.14421038  0.00000000       0.000
   0.00000000 -0.15622802  0.00000000       0.000
   0.00000000 -0.16824567  0.00000000       0.000
   0.00000000 -0.18026331  0.00000000       0.000
   0.00000000 -0.19228096  0.00000000       0.000
   0.00000000 -0.20429815  0.00000000       0.000
   0.00000000 -0.21631579  0.00000000       0.000
   0.00000000 -0.22833344  0.00000000       0.000
   0.00000000 -0.22833344  0.00000000       0.000
  -0.00815470 -0.22833344 -0.00815470       0.000
  -0.01630963 -0.22833321 -0.01630963       0.000
  -0.02446433 -0.22833321 -0.02446433       0.000
  -0.03261903 -0.22833367 -0.03261903       0.000
  -0.04077373 -0.22833367 -0.04077373       0.000
  -0.04892866 -0.22833344 -0.04892866       0.000
  -0.05708336 -0.22833344 -0.05708336       0.000
  -0.17125008 -0.17125008  0.00000000       0.000
  -0.16440008 -0.16440008  0.00000000       0.000
  -0.15755007 -0.15755007  0.00000000       0.000
  -0.15070007 -0.15070007  0.00000000       0.000
  -0.14385007 -0.14385007  0.00000000       0.000
  -0.13700006 -0.13700006  0.00000000       0.000
  -0.13015006 -0.13015006  0.00000000       0.000
  -0.12330006 -0.12330006  0.00000000       0.000
  -0.11645005 -0.11645005  0.00000000       0.000
  -0.10960005 -0.10960005  0.00000000       0.000
  -0.10275005 -0.10275005  0.00000000       0.000
  -0.09590004 -0.09590004  0.00000000       0.000
  -0.08905004 -0.08905004  0.00000000       0.000
  -0.08220004 -0.08220004  0.00000000       0.000
  -0.07535004 -0.07535004  0.00000000       0.000
  -0.06850003 -0.06850003  0.00000000       0.000
  -0.06165003 -0.06165003  0.00000000       0.000
  -0.05480003 -0.05480003  0.00000000       0.000
  -0.04795002 -0.04795002  0.00000000       0.000
  -0.04110002 -0.04110002  0.00000000       0.000
  -0.03425002 -0.03425002  0.00000000       0.000
  -0.02740001 -0.02740001  0.00000000       0.000
  -0.02055001 -0.02055001  0.00000000       0.000
  -0.01370001 -0.01370001  0.00000000       0.000
  -0.00685000 -0.00685000  0.00000000       0.000
   0.00000000  0.00000000  0.00000000       0.000
   0.00000000  0.00000000  0.00000000       0.000
  -0.00496374 -0.00496374 -0.00496374       0.000
  -0.00992748 -0.00992748 -0.00992748       0.000
  -0.01489122 -0.01489122 -0.01489122       0.000
  -0.01985519 -0.01985519 -0.01985519       0.000
  -0.02481893 -0.02481893 -0.02481893       0.000
  -0.02978267 -0.02978267 -0.02978267       0.000
  -0.03474641 -0.03474641 -0.03474641       0.000
  -0.03971015 -0.03971015 -0.03971015       0.000
  -0.04467389 -0.04467389 -0.04467389       0.000
  -0.04963763 -0.04963763 -0.04963763       0.000
  -0.05460138 -0.05460138 -0.05460138       0.000
  -0.05956534 -0.05956534 -0.05956534       0.000
  -0.06452909 -0.06452909 -0.06452909       0.000
  -0.06949283 -0.06949283 -0.06949283       0.000
  -0.07445657 -0.07445657 -0.07445657       0.000
  -0.07942031 -0.07942031 -0.07942031       0.000
  -0.08438405 -0.08438405 -0.08438405       0.000
  -0.08934779 -0.08934779 -0.08934779       0.000
  -0.09431153 -0.09431153 -0.09431153       0.000
  -0.09927550 -0.09927550 -0.09927550       0.000
  -0.10423924 -0.10423924 -0.10423924       0.000
  -0.10920298 -0.10920298 -0.10920298       0.000
  -0.11416672 -0.11416672 -0.11416672       0.000
  -0.11416672 -0.11416672 -0.11416672       0.000
  -0.11416672 -0.12685201 -0.10148143       0.000
  -0.11416672 -0.13953731 -0.08879613       0.000
  -0.11416672 -0.15222214 -0.07611130       0.000
  -0.11416672 -0.16490743 -0.06342601       0.000
  -0.11416672 -0.17759273 -0.05074071       0.000
  -0.11416672 -0.19027802 -0.03805542       0.000
  -0.11416672 -0.20296285 -0.02537059       0.000
  -0.11416672 -0.21564815 -0.01268529       0.000
  -0.11416672 -0.22833344  0.00000000       0.000
  -0.11416672 -0.22833344  0.00000000       0.000
  -0.10148143 -0.22833344  0.00000000       0.000
  -0.08879613 -0.22833344 -0.00000000       0.000
  -0.07611130 -0.22833344  0.00000000       0.000
  -0.06342601 -0.22833344  0.00000000       0.000
  -0.05074071 -0.22833344 -0.00000000       0.000
  -0.03805542 -0.22833344  0.00000000       0.000
  -0.02537059 -0.22833344  0.00000000       0.000
  -0.01268529 -0.22833344 -0.00000000       0.000
   0.00000000 -0.22833344  0.00000000       0.000
 
 k-points in reciprocal lattice and weights: 10	10	10	56	196	12	20	8	26	24	10	10	20	8
   0.00000000  0.00000000  0.00000000       0.001
   0.10000000  0.00000000  0.00000000       0.006
   0.20000000  0.00000000  0.00000000       0.006
   0.30000000  0.00000000  0.00000000       0.006
   0.40000000  0.00000000  0.00000000       0.006
   0.50000000  0.00000000  0.00000000       0.003
   0.10000000  0.10000000  0.00000000       0.012
   0.20000000  0.10000000  0.00000000       0.024
[...]
     48      91.4584      0.00000

 k-point   245 :      -0.5000   -0.1944   -0.6944
  band No.  band energies     occupation 
      1      -3.6592      2.00000
      2      -0.3090      2.00000
      3       2.3986      2.00000
      4       2.6085      2.00000
      5      13.1334      0.00000
      6      16.6090      0.00000
      7      19.0163      0.00000
      8      20.3394      0.00000
      9      23.5056      0.00000
     10      26.7750      0.00000
     11      30.3691      0.00000
     12      33.3779      0.00000
     13      34.2224      0.00000
     14      36.8784      0.00000
     15      36.9958      0.00000
     16      37.2634      0.00000
     17      39.1340      0.00000
     18      39.2556      0.00000
     19      43.5213      0.00000
     20      46.2411      0.00000
     21      46.4038      0.00000
     22      49.6102      0.00000
     23      50.5374      0.00000
     24      51.2228      0.00000
     25      54.1204      0.00000
     26      56.1653      0.00000
     27      57.6997      0.00000
     28      59.2716      0.00000
     29      61.7439      0.00000
     30      64.4642      0.00000
     31      65.8325      0.00000
     32      67.3678      0.00000
     33      68.7827      0.00000
     34      69.0617      0.00000
     35      73.2704      0.00000
     36      74.7424      0.00000
     37      78.3063      0.00000
     38      78.8040      0.00000
     39      80.2107      0.00000
     40      81.1777      0.00000
     41      83.3953      0.00000
     42      84.3520      0.00000
     43      85.8378      0.00000
     44      87.6683      0.00000
     45      87.9780      0.00000
     46      90.2966      0.00000
     47      90.8243      0.00000
     48      91.8074      0.00000

 k-point   246 :      -0.5000   -0.1667   -0.6667
  band No.  band energies     occupation 
      1      -3.6927      2.00000
      2      -0.4448      2.00000
      3       2.6581      2.00000
      4       2.7846      2.00000
      5      12.4922      0.00000
      6      15.7521      0.00000
      7      19.7624      0.00000
      8      21.2704      0.00000
      9      23.4749      0.00000
     10      26.9097      0.00000
     11      30.4044      0.00000
     12      33.2465      0.00000
     13      34.3207      0.00000
     14      36.2720      0.00000
     15      36.9056      0.00000
     16      37.3102      0.00000
     17      38.8846      0.00000
     18      39.5396      0.00000
     19      43.3163      0.00000
     20      45.6317      0.00000
     21      47.0831      0.00000
     22      48.8701      0.00000
     23      50.0504      0.00000
     24      50.5701      0.00000
     25      54.2983      0.00000
     26      57.8206      0.00000
     27      59.4491      0.00000
     28      59.4740      0.00000
     29      61.6869      0.00000
     30      64.9060      0.00000
     31      65.5885      0.00000
     32      67.0617      0.00000
     33      68.5250      0.00000
     34      68.9279      0.00000
     35      72.4892      0.00000
     36      74.6434      0.00000
     37      77.8184      0.00000
     38      79.1666      0.00000
     39      79.7349      0.00000
     40      80.0679      0.00000
     41      83.3059      0.00000
     42      84.1278      0.00000
     43      86.2564      0.00000
     44      88.0546      0.00000
     45      89.0070      0.00000
     46      90.0825      0.00000
     47      90.1960      0.00000
     48      91.5604      0.00000

 k-point   247 :      -0.5000   -0.1389   -0.6389
  band No.  band energies     occupation 
      1      -3.7330      2.00000
      2      -0.5880      2.00000
      3       2.9615      2.00000
      4       3.0131      2.00000
      5      11.8126      0.00000
      6      14.9615      0.00000
      7      20.5790      0.00000
      8      22.1386      0.00000
      9      23.4404      0.00000
     10      27.1192      0.00000
     11      30.4612      0.00000
     12      33.0889      0.00000
     13      34.2566      0.00000
     14      35.8690      0.00000
     15      36.4092      0.00000
     16      37.4079      0.00000
     17      38.8995      0.00000
     18      39.8672      0.00000
     19      43.0840      0.00000
     20      44.8265      0.00000
     21      47.2935      0.00000
     22      48.0622      0.00000
     23      49.5203      0.00000
     24      51.0191      0.00000
     25      54.4923      0.00000
     26      59.1837      0.00000
     27      59.7514      0.00000
     28      61.2251      0.00000
     29      61.9339      0.00000
     30      65.2862      0.00000
     31      65.3143      0.00000
     32      66.7848      0.00000
     33      68.0654      0.00000
     34      68.9382      0.00000
     35      71.8963      0.00000
     36      74.2968      0.00000
     37      76.6697      0.00000
     38      78.6421      0.00000
     39      79.4159      0.00000
     40      80.3735      0.00000
     41      82.8572      0.00000
     42      83.2247      0.00000
     43      86.4252      0.00000
     44      88.1672      0.00000
     45      89.1007      0.00000
     46      90.0973      0.00000
     47      90.6998      0.00000
     48      92.2200      0.00000

 k-point   248 :      -0.5000   -0.1111   -0.6111
  band No.  band energies     occupation 
      1      -3.7747      2.00000
      2      -0.7207      2.00000
      3       3.2743      2.00000
      4       3.2767      2.00000
      5      11.1577      0.00000
      6      14.2577      0.00000
      7      21.3919      0.00000
      8      22.8925      0.00000
      9      23.4152      0.00000
     10      27.4280      0.00000
     11      30.5491      0.00000
     12      32.9123      0.00000
     13      33.8099      0.00000
     14      35.6631      0.00000
     15      35.9055      0.00000
     16      37.5246      0.00000
     17      39.2317      0.00000
     18      40.0721      0.00000
     19      42.8531      0.00000
     20      43.9862      0.00000
     21      46.5950      0.00000
     22      47.3701      0.00000
     23      50.0222      0.00000
     24      51.6082      0.00000
     25      54.6338      0.00000
     26      59.1901      0.00000
     27      60.9167      0.00000
     28      62.6716      0.00000
     29      62.9214      0.00000
     30      65.0191      0.00000
     31      65.4855      0.00000
     32      66.6320      0.00000
     33      67.9650      0.00000
     34      68.6586      0.00000
     35      71.7099      0.00000
     36      73.7576      0.00000
     37      75.5269      0.00000
     38      77.4681      0.00000
     39      78.7723      0.00000
     40      81.1092      0.00000
     41      81.9309      0.00000
     42      82.5095      0.00000
     43      86.1787      0.00000
     44      88.3642      0.00000
     45      89.4536      0.00000
     46      90.4497      0.00000
     47      91.0543      0.00000
     48      93.4910      0.00000

 k-point   249 :      -0.5000   -0.0833   -0.5833
  band No.  band energies     occupation 
      1      -3.8128      2.00000
      2      -0.8318      2.00000
      3       3.5430      2.00000
      4       3.5713      2.00000
      5      10.5735      0.00000
      6      13.6646      0.00000
      7      22.1383      0.00000
      8      23.3100      0.00000
      9      23.5782      0.00000
     10      27.8577      0.00000
     11      30.6816      0.00000
     12      32.7066      0.00000
     13      33.1042      0.00000
     14      34.8964      0.00000
     15      36.2731      0.00000
     16      37.6397      0.00000
     17      39.7131      0.00000
     18      40.0560      0.00000
     19      42.6580      0.00000
     20      43.3098      0.00000
     21      45.6090      0.00000
     22      46.7830      0.00000
     23      50.9015      0.00000
     24      52.2459      0.00000
     25      54.6490      0.00000
     26      58.8621      0.00000
     27      61.8537      0.00000
     28      63.8821      0.00000
     29      64.0604      0.00000
     30      65.1128      0.00000
     31      65.3129      0.00000
     32      66.7465      0.00000
     33      68.2159      0.00000
     34      68.4010      0.00000
     35      71.9241      0.00000
     36      73.1249      0.00000
     37      74.4806      0.00000
     38      76.2821      0.00000
     39      77.5370      0.00000
     40      79.6873      0.00000
     41      82.5303      0.00000
     42      82.5976      0.00000
     43      85.6878      0.00000
     44      88.8904      0.00000
     45      89.8719      0.00000
     46      90.7810      0.00000
     47      91.4916      0.00000
     48      93.2328      0.00000

 k-point   250 :      -0.5000   -0.0556   -0.5556
  band No.  band energies     occupation 
      1      -3.8431      2.00000
      2      -0.9149      2.00000
      3       3.7832      2.00000
      4       3.8149      2.00000
      5      10.1038      0.00000
      6      13.2099      0.00000
      7      22.7518      0.00000
      8      23.3150      0.00000
      9      23.9795      0.00000
     10      28.3997      0.00000
     11      30.8744      0.00000
     12      32.3299      0.00000
     13      32.4414      0.00000
     14      34.2626      0.00000
     15      36.8036      0.00000
     16      37.7387      0.00000
     17      39.7244      0.00000
     18      40.2365      0.00000
     19      42.5508      0.00000
     20      42.9479      0.00000
     21      44.6405      0.00000
     22      46.3082      0.00000
     23      51.8316      0.00000
     24      52.8464      0.00000
     25      54.4746      0.00000
     26      58.4781      0.00000
     27      62.5325      0.00000
     28      64.2399      0.00000
     29      64.7786      0.00000
     30      65.3904      0.00000
     31      65.5139      0.00000
     32      66.9457      0.00000
     33      68.4937      0.00000
     34      69.2489      0.00000
     35      72.3543      0.00000
     36      72.4741      0.00000
     37      73.6348      0.00000
     38      75.0492      0.00000
     39      75.9500      0.00000
     40      77.9427      0.00000
     41      82.9825      0.00000
     42      83.4063      0.00000
     43      85.1601      0.00000
     44      89.5685      0.00000
     45      90.1614      0.00000
     46      91.0230      0.00000
     47      91.9725      0.00000
     48      92.5997      0.00000

 k-point   251 :      -0.5000   -0.0278   -0.5278
  band No.  band energies     occupation 
      1      -3.8625      2.00000
      2      -0.9660      2.00000
      3       3.9538      2.00000
      4       3.9770      2.00000
      5       9.7944      0.00000
      6      12.9218      0.00000
      7      23.1616      0.00000
      8      23.3022      0.00000
      9      24.2246      0.00000
     10      28.9640      0.00000
     11      31.1292      0.00000
     12      31.6281      0.00000
     13      32.1051      0.00000
     14      33.8712      0.00000
     15      37.4004      0.00000
     16      37.8069      0.00000
     17      39.1648      0.00000
     18      40.6762      0.00000
     19      42.6151      0.00000
     20      42.8499      0.00000
     21      43.7900      0.00000
     22      45.9848      0.00000
     23      52.7127      0.00000
     24      53.2993      0.00000
     25      54.0830      0.00000
     26      58.1579      0.00000
     27      63.0417      0.00000
     28      64.2826      0.00000
     29      64.4993      0.00000
     30      65.6086      0.00000
     31      66.3614      0.00000
     32      66.6428      0.00000
     33      70.0056      0.00000
     34      70.3385      0.00000
     35      71.8941      0.00000
     36      72.7350      0.00000
     37      73.1098      0.00000
     38      73.7444      0.00000
     39      74.3412      0.00000
     40      76.5699      0.00000
     41      83.4703      0.00000
     42      84.0588      0.00000
     43      84.6454      0.00000
     44      90.2326      0.00000
     45      90.3833      0.00000
     46      91.1939      0.00000
     47      91.6451      0.00000
     48      92.7569      0.00000

 k-point   252 :      -0.5000    0.0000   -0.5000
  band No.  band energies     occupation 
      1      -3.8691      2.00000
      2      -0.9832      2.00000
      3       4.0162      2.00000
      4       4.0341      2.00000
      5       9.6855      0.00000
      6      12.8229      0.00000
      7      23.2972      0.00000
      8      23.3065      0.00000
      9      24.3041      0.00000
     10      29.2587      0.00000
     11      31.2892      0.00000
     12      31.3161      0.00000
     13      31.8763      0.00000
     14      33.7460      0.00000
     15      37.7869      0.00000
     16      37.8311      0.00000
     17      38.7729      0.00000
     18      40.8541      0.00000
     19      42.8180      0.00000
     20      42.8438      0.00000
     21      43.2911      0.00000
     22      45.8674      0.00000
     23      53.4651      0.00000
     24      53.4730      0.00000
     25      53.4973      0.00000
     26      58.0288      0.00000
     27      63.2711      0.00000
     28      64.3152      0.00000
     29      64.3226      0.00000
     30      65.6105      0.00000
     31      66.4825      0.00000
     32      66.7705      0.00000
     33      71.1093      0.00000
     34      71.5944      0.00000
     35      71.6025      0.00000
     36      71.8972      0.00000
     37      72.9823      0.00000
     38      73.3547      0.00000
     39      73.3749      0.00000
     40      76.0095      0.00000
     41      83.8248      0.00000
     42      84.2890      0.00000
     43      84.3032      0.00000
     44      90.5202      0.00000
     45      90.5509      0.00000
     46      91.2878      0.00000
     47      91.3323      0.00000
     48      92.9123      0.00000


--------------------------------------------------------------------------------------------------------


 soft charge-density along one line, spin component           1
         0         1         2         3         4         5         6         7         8         9
 total charge-density along one line
 
 pseudopotential strength for first ion, spin component:           1
 17.512  24.432   0.000  -0.000  -0.003   0.000  -0.000  -0.006
 24.432  34.091   0.000  -0.000  -0.005   0.000  -0.001  -0.008
  0.000   0.000   4.013   0.002  -0.000   7.479   0.003  -0.000
 -0.000  -0.000   0.002   4.019  -0.000   0.003   7.489  -0.000
 -0.003  -0.005  -0.000  -0.000   4.014  -0.000  -0.000   7.481
  0.000   0.000   7.479   0.003  -0.000  13.948   0.006  -0.000
 -0.000  -0.001   0.003   7.489  -0.000   0.006  13.967  -0.000
 -0.006  -0.008  -0.000  -0.000   7.481  -0.000  -0.000  13.953
 total augmentation occupancy for first ion, spin component:           1
  2.000   0.000   0.000   0.000   0.000   0.000   0.000   0.000
  0.000   0.000   0.000   0.000   0.000   0.000   0.000   0.000
  0.000   0.000   0.667   0.000   0.000   0.000   0.000   0.000
  0.000   0.000   0.000   0.667   0.000   0.000   0.000   0.000
  0.000   0.000   0.000   0.000   0.667   0.000   0.000   0.000
  0.000   0.000   0.000   0.000   0.000   0.000   0.000   0.000
  0.000   0.000   0.000   0.000   0.000   0.000   0.000   0.000
  0.000   0.000   0.000   0.000   0.000   0.000   0.000   0.000


------------------------ aborting loop because EDIFF is reached ----------------------------------------


 


 total charge     
 
# of ion     s       p       d       tot
----------------------------------------
  1        0.673   0.935   0.000   1.608
  2        0.787   1.812   0.000   2.599
------------------------------------------------
tot        1.460   2.747   0.000   4.207
 
    CHARGE:  cpu time    0.38: real time    0.43
    FORLOC:  cpu time    0.02: real time    0.02
    FORHF :  cpu time 5951.83: real time 6486.42
    FORNL :  cpu time    0.30: real time    0.36
    FORCOR:  cpu time    0.77: real time    1.43
    FORHAR:  cpu time    0.19: real time    0.30
    OFIELD:  cpu time    0.00: real time    0.00

 VOLUME and BASIS-vectors are now :
 -----------------------------------------------------------------------------
  energy-cutoff  :      500.00
  volume of cell :       21.00
      direct lattice vectors                 reciprocal lattice vectors
     0.000000000  2.189780000  2.189780000    -0.228333440  0.228333440  0.228333440
     2.189780000  0.000000000  2.189780000     0.228333440 -0.228333440  0.228333440
     2.189780000  2.189780000  0.000000000     0.228333440  0.228333440 -0.228333440

  length of vectors
     3.096816575  3.096816575  3.096816575     0.395485119  0.395485119  0.395485119


 FORCES acting on ions
    electron-ion (+dipol)            ewald-force                    non-local-force                 convergence-correction
 -----------------------------------------------------------------------------------------------
   -.307E-01 0.720E-02 -.104E-01   -.207E-14 0.394E-14 0.296E-14   0.000E+00 0.694E-17 -.694E-17   0.234E+00 -.212E-02 0.245E-02
   0.131E-01 -.390E-02 0.442E-02   0.208E-14 -.444E-14 -.286E-14   -.139E-16 -.173E-16 0.173E-16   -.246E+00 0.419E-02 -.941E-02
 -----------------------------------------------------------------------------------------------
   -.175E-01 0.330E-02 -.595E-02   0.154E-16 -.498E-15 0.105E-15   -.139E-16 -.104E-16 0.104E-16   -.117E-01 0.207E-02 -.695E-02
 
 
 POSITION                                       TOTAL-FORCE (eV/Angst)
 -----------------------------------------------------------------------------------
      1.09489      1.09489      1.09489         0.000000      0.000000      0.000000
      0.00000      0.00000      0.00000        -0.000000     -0.000000     -0.000000
 -----------------------------------------------------------------------------------
    total drift:                               -0.029192      0.005365     -0.012903


--------------------------------------------------------------------------------------------------------



  FREE ENERGIE OF THE ION-ELECTRON SYSTEM (eV)
  ---------------------------------------------------
  free  energy   TOTEN  =       -14.06072303 eV

  energy  without entropy=      -14.06072303  energy(sigma->0) =      -14.06072303
 


--------------------------------------------------------------------------------------------------------


    POTLOK:  cpu time    1.96: real time    2.06


--------------------------------------------------------------------------------------------------------


 writing wavefunctions
     LOOP+:  cpu time********: real time********
    4ORBIT:  cpu time    0.00: real time    0.00
 


 total charge     
 
# of ion     s       p       d       tot
----------------------------------------
  1        0.673   0.935   0.000   1.608
  2        0.787   1.812   0.000   2.599
------------------------------------------------
tot        1.460   2.747   0.000   4.207
 

 total amount of memory used by VASP on root node    57546. kBytes
========================================================================

   base      :      30000. kBytes
   nonl-proj :      18597. kBytes
   fftplans  :        150. kBytes
   grid      :        695. kBytes
   one-center:          6. kBytes
   HF        :          9. kBytes
   nonlr-proj:        544. kBytes
   wavefun   :       7545. kBytes
 
  
  
 General timing and accounting informations for this job:
 ========================================================
  
                  Total CPU time used (sec):   258237.453
                            User time (sec):   257638.624
                          System time (sec):      598.837
                         Elapsed time (sec):   283939.071
  
                   Maximum memory used (kb):      286088.
                   Average memory used (kb):           0.
  
                          Minor page faults:      9260435
                          Major page faults:           10
                 Voluntary context switches:         7173
