unknown system                          
   1.00000000000000     
     4.379560    0.000000    0.000000
     0.000000    4.379560    0.000000
     0.000000    0.000000    4.379560
   Si   C 
     4     4
Direct
  0.250000  0.250000  0.750000
  0.250000  0.750000  0.250000
  0.750000  0.250000  0.250000
  0.750000  0.750000  0.750000
  0.000000  0.000000  0.000000
  0.000000  0.500000  0.500000
  0.500000  0.000000  0.500000
  0.500000  0.500000  0.000000
 
   48   48   48
  111.21      117.08      130.33      141.30      142.14      131.41      113.21      92.960      74.173      58.384    
  46.041      36.596      29.250      23.404      18.751      15.121      12.340      10.224      8.6300      7.4449    
  6.5645      5.9216      5.4976      5.2752      5.2102      5.2752      5.4976      5.9216      6.5645      7.4449    
  8.6300      10.224      12.340      15.121      18.751      23.404      29.250      36.596      46.041      58.384    
  74.173      92.960      113.21      131.41      142.14      141.30      130.33      117.08      117.08      122.20    
  133.56      142.37      141.57      130.07      111.79      91.800      73.334      57.845      45.722      36.418    
  29.156      23.363      18.745      15.141      12.377      10.274      8.6874      7.5057      6.6271      5.9860    
  5.5631      5.3406      5.2752      5.3406      5.5631      5.9860      6.6271      7.5057      8.6874      10.274    
  12.377      15.141      18.745      23.363      29.156      36.418      45.722      57.845      73.334      91.800    
  111.79      130.07      141.57      142.37      133.56      122.20      130.33      133.56      140.20      143.69    
  139.00      125.79      107.55      88.400      70.891      56.273      44.787      35.888      28.871      23.234    
  18.726      15.200      12.492      10.428      8.8676      7.7005      6.8319      6.1999      5.7836      5.5631    
  5.4976      5.5631      5.7836      6.1999      6.8319      7.7005      8.8676      10.428      12.492      15.200    
  18.726      23.234      28.871      35.888      44.787      56.273      70.891      88.400      107.55      125.79    
  139.00      143.69      140.20      133.56      141.30      142.37      143.69      141.37      132.71      118.20    
  100.65      83.013      67.061      53.806      43.298      35.020      28.389      23.008      18.685      15.296    
  12.690      10.700      9.1896      8.0554      7.2112      6.6007      6.1999      5.9860      5.9216      5.9860    
  6.1999      6.6007      7.2112      8.0554      9.1896      10.700      12.690      15.296      18.685      23.008    
  28.389      35.020      43.298      53.806      67.061      83.013      100.65      118.20      132.71      141.37    
  143.69      142.37      142.14      141.57      139.00      132.71      121.90      107.51      91.616      76.076    
  62.197      50.653      41.347      33.844      27.713      22.683      18.625      15.439      12.985      11.107    
  9.6752      8.5946      7.7899      7.2112      6.8319      6.6271      6.5645      6.6271      6.8319      7.2112    
  7.7899      8.5946      9.6752      11.107      12.985      15.439      18.625      22.683      27.713      33.844    
  41.347      50.653      62.197      76.076      91.616      107.51      121.90      132.71      139.00      141.57    
  131.41      130.07      125.79      118.20      107.51      94.734      81.230      68.236      56.733      47.049    
  39.043      32.403      26.864      22.275      18.565      15.650      13.401      11.674      10.351      9.3452    
  8.5946      8.0554      7.7005      7.5057      7.4449      7.5057      7.7005      8.0554      8.5946      9.3452    
  10.351      11.674      13.401      15.650      18.565      22.275      26.864      32.403      39.043      47.049    
  56.733      68.236      81.230      94.734      107.51      118.20      125.79      130.07      113.21      111.79    
  107.55      100.65      91.616      81.230      70.443      60.207      51.085      43.218      36.499      30.760    
  25.885      21.823      18.539      15.961      13.969      12.435      11.253      10.351      9.6752      9.1896    
  8.8676      8.6874      8.6300      8.6874      8.8676      9.1896      9.6752      10.351      11.253      12.435    
  13.969      15.961      18.539      21.823      25.885      30.760      36.499      43.218      51.085      60.207    
  70.443      81.230      91.616      100.65      107.55      111.79      92.960      91.800      88.400      83.013    
  76.076      68.236      60.207      52.550      45.565      39.333      33.822      28.994      24.844      21.384    
  18.598      16.416      14.732      13.434      12.435      11.674      11.107      10.700      10.428      10.274    
  10.224      10.274      10.428      10.700      11.107      11.674      12.435      13.434      14.732      16.416    
  18.598      21.384      24.844      28.994      33.822      39.333      45.565      52.550      60.207      68.236    
  76.076      83.013      88.400      91.800      74.173      73.334      70.891      67.061      62.197      56.733    
  51.085      45.565      40.350      35.519      31.117      27.198      23.822      21.026      18.795      17.064    
  15.740      14.732      13.969      13.401      12.985      12.690      12.492      12.377      12.340      12.377    
  12.492      12.690      12.985      13.401      13.969      14.732      15.740      17.064      18.795      21.026    
  23.822      27.198      31.117      35.519      40.350      45.565      51.085      56.733      62.197      67.061    
  70.891      73.334      58.384      57.845      56.273      53.806      50.653      47.049      43.218      39.333    
  35.519      31.873      28.493      25.477      22.906      20.816      19.189      17.964      17.064      16.416    
  15.961      15.650      15.439      15.296      15.200      15.141      15.121      15.141      15.200      15.296    
  15.439      15.650      15.961      16.416      17.064      17.964      19.189      20.816      22.906      25.477    
  28.493      31.873      35.519      39.333      43.218      47.049      50.653      53.806      56.273      57.845    
  46.041      45.722      44.787      43.298      41.347      39.043      36.499      33.822      31.117      28.493    
  26.065      23.937      22.181      20.823      19.843      19.189      18.795      18.598      18.539      18.565    
  18.625      18.685      18.726      18.745      18.751      18.745      18.726      18.685      18.625      18.565    
  18.539      18.598      18.795      19.189      19.843      20.823      22.181      23.937      26.065      28.493    
  31.117      33.822      36.499      39.043      41.347      43.298      44.787      45.722      36.596      36.418    
  35.888      35.020      33.844      32.403      30.760      28.994      27.198      25.477      23.937      22.664    
  21.715      21.108      20.823      20.816      21.026      21.384      21.823      22.275      22.683      23.008    
  23.234      23.363      23.404      23.363      23.234      23.008      22.683      22.275      21.823      21.384    
  21.026      20.816      20.823      21.108      21.715      22.664      23.937      25.477      27.198      28.994    
  30.760      32.403      33.844      35.020      35.888      36.418      29.250      29.156      28.871      28.389    
  27.713      26.864      25.885      24.844      23.822      22.906      22.181      21.715      21.554      21.715    
  22.181      22.906      23.822      24.844      25.885      26.864      27.713      28.389      28.871      29.156    
  29.250      29.156      28.871      28.389      27.713      26.864      25.885      24.844      23.822      22.906    
  22.181      21.715      21.554      21.715      22.181      22.906      23.822      24.844      25.885      26.864    
  27.713      28.389      28.871      29.156      23.404      23.363      23.234      23.008      22.683      22.275    
  21.823      21.384      21.026      20.816      20.823      21.108      21.715      22.664      23.937      25.477    
  27.198      28.994      30.760      32.403      33.844      35.020      35.888      36.418      36.596      36.418    
  35.888      35.020      33.844      32.403      30.760      28.994      27.198      25.477      23.937      22.664    
  21.715      21.108      20.823      20.816      21.026      21.384      21.823      22.275      22.683      23.008    
  23.234      23.363      18.751      18.745      18.726      18.685      18.625      18.565      18.539      18.598    
  18.795      19.189      19.843      20.823      22.181      23.937      26.065      28.493      31.117      33.822    
  36.499      39.043      41.347      43.298      44.787      45.722      46.041      45.722      44.787      43.298    
  41.347      39.043      36.499      33.822      31.117      28.493      26.065      23.937      22.181      20.823    
  19.843      19.189      18.795      18.598      18.539      18.565      18.625      18.685      18.726      18.745    
  15.121      15.141      15.200      15.296      15.439      15.650      15.961      16.416      17.064      17.964    
  19.189      20.816      22.906      25.477      28.493      31.873      35.519      39.333      43.218      47.049    
  50.653      53.806      56.273      57.845      58.384      57.845      56.273      53.806      50.653      47.049    
  43.218      39.333      35.519      31.873      28.493      25.477      22.906      20.816      19.189      17.964    
  17.064      16.416      15.961      15.650      15.439      15.296      15.200      15.141      12.340      12.377    
  12.492      12.690      12.985      13.401      13.969      14.732      15.740      17.064      18.795      21.026    
  23.822      27.198      31.117      35.519      40.350      45.565      51.085      56.733      62.197      67.061    
  70.891      73.334      74.173      73.334      70.891      67.061      62.197      56.733      51.085      45.565    
  40.350      35.519      31.117      27.198      23.822      21.026      18.795      17.064      15.740      14.732    
  13.969      13.401      12.985      12.690      12.492      12.377      10.224      10.274      10.428      10.700    
  11.107      11.674      12.435      13.434      14.732      16.416      18.598      21.384      24.844      28.994    
  33.822      39.333      45.565      52.550      60.207      68.236      76.076      83.013      88.400      91.800    
  92.960      91.800      88.400      83.013      76.076      68.236      60.207      52.550      45.565      39.333    
  33.822      28.994      24.844      21.384      18.598      16.416      14.732      13.434      12.435      11.674    
  11.107      10.700      10.428      10.274      8.6300      8.6874      8.8676      9.1896      9.6752      10.351    
  11.253      12.435      13.969      15.961      18.539      21.823      25.885      30.760      36.499      43.218    
  51.085      60.207      70.443      81.230      91.616      100.65      107.55      111.79      113.21      111.79    
  107.55      100.65      91.616      81.230      70.443      60.207      51.085      43.218      36.499      30.760    
  25.885      21.823      18.539      15.961      13.969      12.435      11.253      10.351      9.6752      9.1896    
  8.8676      8.6874      7.4449      7.5057      7.7005      8.0554      8.5946      9.3452      10.351      11.674    
  13.401      15.650      18.565      22.275      26.864      32.403      39.043      47.049      56.733      68.236    
  81.230      94.734      107.51      118.20      125.79      130.07      131.41      130.07      125.79      118.20    
  107.51      94.734      81.230      68.236      56.733      47.049      39.043      32.403      26.864      22.275    
  18.565      15.650      13.401      11.674      10.351      9.3452      8.5946      8.0554      7.7005      7.5057    
  6.5645      6.6271      6.8319      7.2112      7.7899      8.5946      9.6752      11.107      12.985      15.439    
  18.625      22.683      27.713      33.844      41.347      50.653      62.197      76.076      91.616      107.51    
  121.90      132.71      139.00      141.57      142.14      141.57      139.00      132.71      121.90      107.51    
  91.616      76.076      62.197      50.653      41.347      33.844      27.713      22.683      18.625      15.439    
  12.985      11.107      9.6752      8.5946      7.7899      7.2112      6.8319      6.6271      5.9216      5.9860    
  6.1999      6.6007      7.2112      8.0554      9.1896      10.700      12.690      15.296      18.685      23.008    
  28.389      35.020      43.298      53.806      67.061      83.013      100.65      118.20      132.71      141.37    
  143.69      142.37      141.30      142.37      143.69      141.37      132.71      118.20      100.65      83.013    
  67.061      53.806      43.298      35.020      28.389      23.008      18.685      15.296      12.690      10.700    
  9.1896      8.0554      7.2112      6.6007      6.1999      5.9860      5.4976      5.5631      5.7836      6.1999    
  6.8319      7.7005      8.8676      10.428      12.492      15.200      18.726      23.234      28.871      35.888    
  44.787      56.273      70.891      88.400      107.55      125.79      139.00      143.69      140.20      133.56    
  130.33      133.56      140.20      143.69      139.00      125.79      107.55      88.400      70.891      56.273    
  44.787      35.888      28.871      23.234      18.726      15.200      12.492      10.428      8.8676      7.7005    
  6.8319      6.1999      5.7836      5.5631      5.2752      5.3406      5.5631      5.9860      6.6271      7.5057    
  8.6874      10.274      12.377      15.141      18.745      23.363      29.156      36.418      45.722      57.845    
  73.334      91.800      111.79      130.07      141.57      142.37      133.56      122.20      117.08      122.20    
  133.56      142.37      141.57      130.07      111.79      91.800      73.334      57.845      45.722      36.418    
  29.156      23.363      18.745      15.141      12.377      10.274      8.6874      7.5057      6.6271      5.9860    
  5.5631      5.3406      5.2102      5.2752      5.4976      5.9216      6.5645      7.4449      8.6300      10.224    
  12.340      15.121      18.751      23.404      29.250      36.596      46.041      58.384      74.173      92.960    
  113.21      131.41      142.14      141.30      130.33      117.08      111.21      117.08      130.33      141.30    
  142.14      131.41      113.21      92.960      74.173      58.384      46.041      36.596      29.250      23.404    
  18.751      15.121      12.340      10.224      8.6300      7.4449      6.5645      5.9216      5.4976      5.2752    
  5.2752      5.3406      5.5631      5.9860      6.6271      7.5057      8.6874      10.274      12.377      15.141    
  18.745      23.363      29.156      36.418      45.722      57.845      73.334      91.800      111.79      130.07    
  141.57      142.37      133.56      122.20      117.08      122.20      133.56      142.37      141.57      130.07    
  111.79      91.800      73.334      57.845      45.722      36.418      29.156      23.363      18.745      15.141    
  12.377      10.274      8.6874      7.5057      6.6271      5.9860      5.5631      5.3406      5.4976      5.5631    
  5.7836      6.1999      6.8319      7.7005      8.8676      10.428      12.492      15.200      18.726      23.234    
  28.871      35.888      44.787      56.273      70.891      88.400      107.55      125.79      139.00      143.69    
  140.20      133.56      130.33      133.56      140.20      143.69      139.00      125.79      107.55      88.400    
  70.891      56.273      44.787      35.888      28.871      23.234      18.726      15.200      12.492      10.428    
  8.8676      7.7005      6.8319      6.1999      5.7836      5.5631      5.9216      5.9860      6.1999      6.6007    
  7.2112      8.0554      9.1896      10.700      12.690      15.296      18.685      23.008      28.389      35.020    
  43.298      53.806      67.061      83.013      100.65      118.20      132.71      141.37      143.69      142.37    
  141.30      142.37      143.69      141.37      132.71      118.20      100.65      83.013      67.061      53.806    
  43.298      35.020      28.389      23.008      18.685      15.296      12.690      10.700      9.1896      8.0554    
  7.2112      6.6007      6.1999      5.9860      6.5645      6.6271      6.8319      7.2112      7.7899      8.5946    
  9.6752      11.107      12.985      15.439      18.625      22.683      27.713      33.844      41.347      50.653    
  62.197      76.076      91.616      107.51      121.90      132.71      139.00      141.57      142.14      141.57    
  139.00      132.71      121.90      107.51      91.616      76.076      62.197      50.653      41.347      33.844    
  27.713      22.683      18.625      15.439      12.985      11.107      9.6752      8.5946      7.7899      7.2112    
  6.8319      6.6271      7.4449      7.5057      7.7005      8.0554      8.5946      9.3452      10.351      11.674    
  13.401      15.650      18.565      22.275      26.864      32.403      39.043      47.049      56.733      68.236    
  81.230      94.734      107.51      118.20      125.79      130.07      131.41      130.07      125.79      118.20    
  107.51      94.734      81.230      68.236      56.733      47.049      39.043      32.403      26.864      22.275    
  18.565      15.650      13.401      11.674      10.351      9.3452      8.5946      8.0554      7.7005      7.5057    
  8.6300      8.6874      8.8676      9.1896      9.6752      10.351      11.253      12.435      13.969      15.961    
  18.539      21.823      25.885      30.760      36.499      43.218      51.085      60.207      70.443      81.230    
  91.616      100.65      107.55      111.79      113.21      111.79      107.55      100.65      91.616      81.230    
  70.443      60.207      51.085      43.218      36.499      30.760      25.885      21.823      18.539      15.961    
  13.969      12.435      11.253      10.351      9.6752      9.1896      8.8676      8.6874      10.224      10.274    
  10.428      10.700      11.107      11.674      12.435      13.434      14.732      16.416      18.598      21.384    
  24.844      28.994      33.822      39.333      45.565      52.550      60.207      68.236      76.076      83.013    
  88.400      91.800      92.960      91.800      88.400      83.013      76.076      68.236      60.207      52.550    
  45.565      39.333      33.822      28.994      24.844      21.384      18.598      16.416      14.732      13.434    
  12.435      11.674      11.107      10.700      10.428      10.274      12.340      12.377      12.492      12.690    
  12.985      13.401      13.969      14.732      15.740      17.064      18.795      21.026      23.822      27.198    
  31.117      35.519      40.350      45.565      51.085      56.733      62.197      67.061      70.891      73.334    
  74.173      73.334      70.891      67.061      62.197      56.733      51.085      45.565      40.350      35.519    
  31.117      27.198      23.822      21.026      18.795      17.064      15.740      14.732      13.969      13.401    
  12.985      12.690      12.492      12.377      15.121      15.141      15.200      15.296      15.439      15.650    
  15.961      16.416      17.064      17.964      19.189      20.816      22.906      25.477      28.493      31.873    
  35.519      39.333      43.218      47.049      50.653      53.806      56.273      57.845      58.384      57.845    
  56.273      53.806      50.653      47.049      43.218      39.333      35.519      31.873      28.493      25.477    
  22.906      20.816      19.189      17.964      17.064      16.416      15.961      15.650      15.439      15.296    
  15.200      15.141      18.751      18.745      18.726      18.685      18.625      18.565      18.539      18.598    
  18.795      19.189      19.843      20.823      22.181      23.937      26.065      28.493      31.117      33.822    
  36.499      39.043      41.347      43.298      44.787      45.722      46.041      45.722      44.787      43.298    
  41.347      39.043      36.499      33.822      31.117      28.493      26.065      23.937      22.181      20.823    
  19.843      19.189      18.795      18.598      18.539      18.565      18.625      18.685      18.726      18.745    
  23.404      23.363      23.234      23.008      22.683      22.275      21.823      21.384      21.026      20.816    
  20.823      21.108      21.715      22.664      23.937      25.477      27.198      28.994      30.760      32.403    
  33.844      35.020      35.888      36.418      36.596      36.418      35.888      35.020      33.844      32.403    
  30.760      28.994      27.198      25.477      23.937      22.664      21.715      21.108      20.823      20.816    
  21.026      21.384      21.823      22.275      22.683      23.008      23.234      23.363      29.250      29.156    
  28.871      28.389      27.713      26.864      25.885      24.844      23.822      22.906      22.181      21.715    
  21.554      21.715      22.181      22.906      23.822      24.844      25.885      26.864      27.713      28.389    
  28.871      29.156      29.250      29.156      28.871      28.389      27.713      26.864      25.885      24.844    
  23.822      22.906      22.181      21.715      21.554      21.715      22.181      22.906      23.822      24.844    
  25.885      26.864      27.713      28.389      28.871      29.156      36.596      36.418      35.888      35.020    
  33.844      32.403      30.760      28.994      27.198      25.477      23.937      22.664      21.715      21.108    
  20.823      20.816      21.026      21.384      21.823      22.275      22.683      23.008      23.234      23.363    
  23.404      23.363      23.234      23.008      22.683      22.275      21.823      21.384      21.026      20.816    
  20.823      21.108      21.715      22.664      23.937      25.477      27.198      28.994      30.760      32.403    
  33.844      35.020      35.888      36.418      46.041      45.722      44.787      43.298      41.347      39.043    
  36.499      33.822      31.117      28.493      26.065      23.937      22.181      20.823      19.843      19.189    
  18.795      18.598      18.539      18.565      18.625      18.685      18.726      18.745      18.751      18.745    
  18.726      18.685      18.625      18.565      18.539      18.598      18.795      19.189      19.843      20.823    
  22.181      23.937      26.065      28.493      31.117      33.822      36.499      39.043      41.347      43.298    
  44.787      45.722      58.384      57.845      56.273      53.806      50.653      47.049      43.218      39.333    
  35.519      31.873      28.493      25.477      22.906      20.816      19.189      17.964      17.064      16.416    
  15.961      15.650      15.439      15.296      15.200      15.141      15.121      15.141      15.200      15.296    
  15.439      15.650      15.961      16.416      17.064      17.964      19.189      20.816      22.906      25.477    
  28.493      31.873      35.519      39.333      43.218      47.049      50.653      53.806      56.273      57.845    
  74.173      73.334      70.891      67.061      62.197      56.733      51.085      45.565      40.350      35.519    
  31.117      27.198      23.822      21.026      18.795      17.064      15.740      14.732      13.969      13.401    
  12.985      12.690      12.492      12.377      12.340      12.377      12.492      12.690      12.985      13.401    
  13.969      14.732      15.740      17.064      18.795      21.026      23.822      27.198      31.117      35.519    
  40.350      45.565      51.085      56.733      62.197      67.061      70.891      73.334      92.960      91.800    
  88.400      83.013      76.076      68.236      60.207      52.550      45.565      39.333      33.822      28.994    
  24.844      21.384      18.598      16.416      14.732      13.434      12.435      11.674      11.107      10.700    
  10.428      10.274      10.224      10.274      10.428      10.700      11.107      11.674      12.435      13.434    
  14.732      16.416      18.598      21.384      24.844      28.994      33.822      39.333      45.565      52.550    
  60.207      68.236      76.076      83.013      88.400      91.800      113.21      111.79      107.55      100.65    
  91.616      81.230      70.443      60.207      51.085      43.218      36.499      30.760      25.885      21.823    
  18.539      15.961      13.969      12.435      11.253      10.351      9.6752      9.1896      8.8676      8.6874    
  8.6300      8.6874      8.8676      9.1896      9.6752      10.351      11.253      12.435      13.969      15.961    
  18.539      21.823      25.885      30.760      36.499      43.218      51.085      60.207      70.443      81.230    
  91.616      100.65      107.55      111.79      131.41      130.07      125.79      118.20      107.51      94.734    
  81.230      68.236      56.733      47.049      39.043      32.403      26.864      22.275      18.565      15.650    
  13.401      11.674      10.351      9.3452      8.5946      8.0554      7.7005      7.5057      7.4449      7.5057    
  7.7005      8.0554      8.5946      9.3452      10.351      11.674      13.401      15.650      18.565      22.275    
  26.864      32.403      39.043      47.049      56.733      68.236      81.230      94.734      107.51      118.20    
  125.79      130.07      142.14      141.57      139.00      132.71      121.90      107.51      91.616      76.076    
  62.197      50.653      41.347      33.844      27.713      22.683      18.625      15.439      12.985      11.107    
  9.6752      8.5946      7.7899      7.2112      6.8319      6.6271      6.5645      6.6271      6.8319      7.2112    
  7.7899      8.5946      9.6752      11.107      12.985      15.439      18.625      22.683      27.713      33.844    
  41.347      50.653      62.197      76.076      91.616      107.51      121.90      132.71      139.00      141.57    
  141.30      142.37      143.69      141.37      132.71      118.20      100.65      83.013      67.061      53.806    
  43.298      35.020      28.389      23.008      18.685      15.296      12.690      10.700      9.1896      8.0554    
  7.2112      6.6007      6.1999      5.9860      5.9216      5.9860      6.1999      6.6007      7.2112      8.0554    
  9.1896      10.700      12.690      15.296      18.685      23.008      28.389      35.020      43.298      53.806    
  67.061      83.013      100.65      118.20      132.71      141.37      143.69      142.37      130.33      133.56    
  140.20      143.69      139.00      125.79      107.55      88.400      70.891      56.273      44.787      35.888    
  28.871      23.234      18.726      15.200      12.492      10.428      8.8676      7.7005      6.8319      6.1999    
  5.7836      5.5631      5.4976      5.5631      5.7836      6.1999      6.8319      7.7005      8.8676      10.428    
  12.492      15.200      18.726      23.234      28.871      35.888      44.787      56.273      70.891      88.400    
  107.55      125.79      139.00      143.69      140.20      133.56      117.08      122.20      133.56      142.37    
  141.57      130.07      111.79      91.800      73.334      57.845      45.722      36.418      29.156      23.363    
  18.745      15.141      12.377      10.274      8.6874      7.5057      6.6271      5.9860      5.5631      5.3406    
  5.2752      5.3406      5.5631      5.9860      6.6271      7.5057      8.6874      10.274      12.377      15.141    
  18.745      23.363      29.156      36.418      45.722      57.845      73.334      91.800      111.79      130.07    
  141.57      142.37      133.56      122.20      117.08      122.20      133.56      142.37      141.57      130.07    
  111.79      91.800      73.334      57.845      45.722      36.418      29.156      23.363      18.745      15.141    
  12.377      10.274      8.6874      7.5057      6.6271      5.9860      5.5631      5.3406      5.2752      5.3406    
  5.5631      5.9860      6.6271      7.5057      8.6874      10.274      12.377      15.141      18.745      23.363    
  29.156      36.418      45.722      57.845      73.334      91.800      111.79      130.07      141.57      142.37    
  133.56      122.20      122.20      125.90      134.94      141.41      139.00      126.86      108.69      89.170    
  71.229      56.222      44.481      35.457      28.404      22.774      18.289      14.793      12.116      10.083    
  8.5532      7.4171      6.5769      5.9696      5.5766      5.3807      5.3406      5.4318      5.6811      6.1318    
  6.8035      7.7170      8.9376      10.566      12.717      15.533      19.195      23.875      29.730      37.037    
  46.350      58.423      73.810      92.164      112.08      130.54      142.74      144.82      137.58      127.35    
  133.56      134.94      139.21      140.55      134.53      120.95      103.03      84.517      67.686      53.688    
  42.708      34.204      27.503      22.129      17.841      14.499      11.942      10.002      8.5437      7.4621    
  6.6671      6.1006      5.7431      5.5766      5.5631      5.6811      5.9560      6.4298      7.1246      8.0641    