unknown system                          
   1.00000000000000     
     4.379560    0.000000    0.000000
     0.000000    4.379560    0.000000
     0.000000    0.000000    4.379560
   Si   C 
     4     4
Direct
  0.250000  0.250000  0.750000
  0.250000  0.750000  0.250000
  0.750000  0.250000  0.250000
  0.750000  0.750000  0.750000
  0.000000  0.000000  0.000000
  0.000000  0.500000  0.500000
  0.500000  0.000000  0.500000
  0.500000  0.500000  0.000000
 
   48   48   48
 0.11120740830E+03 0.11708084641E+03 0.13033487845E+03 0.14130448523E+03 0.14213995556E+03
 0.13141483795E+03 0.11321250432E+03 0.92960280930E+02 0.74172610809E+02 0.58384405271E+02
 0.46040938543E+02 0.36596156237E+02 0.29250178387E+02 0.23404024171E+02 0.18750581728E+02
 0.15120989468E+02 0.12339595749E+02 0.10223626678E+02 0.86300317418E+01 0.74449323633E+01
 0.65644819871E+01 0.59216365913E+01 0.54976334472E+01 0.52752095672E+01 0.52101615053E+01
 0.52752095672E+01 0.54976334472E+01 0.59216365913E+01 0.65644819871E+01 0.74449323633E+01
 0.86300317418E+01 0.10223626678E+02 0.12339595749E+02 0.15120989468E+02 0.18750581728E+02
 0.23404024171E+02 0.29250178387E+02 0.36596156237E+02 0.46040938543E+02 0.58384405271E+02
 0.74172610809E+02 0.92960280930E+02 0.11321250432E+03 0.13141483795E+03 0.14213995556E+03
 0.14130448523E+03 0.13033487845E+03 0.11708084641E+03 0.11708084641E+03 0.12219696071E+03
 0.13355687663E+03 0.14236540362E+03 0.14157195626E+03 0.13007164890E+03 0.11179072453E+03
 0.91800164991E+02 0.73334427876E+02 0.57844545502E+02 0.45722214223E+02 0.36417898254E+02
 0.29156077181E+02 0.23362705823E+02 0.18745250435E+02 0.15140986641E+02 0.12377409866E+02
 0.10273660865E+02 0.86873718172E+01 0.75057146810E+01 0.66271009181E+01 0.59859864080E+01
 0.55630900391E+01 0.53405741623E+01 0.52752095672E+01 0.53405741623E+01 0.55630900391E+01
 0.59859864080E+01 0.66271009181E+01 0.75057146810E+01 0.86873718172E+01 0.10273660865E+02
 0.12377409866E+02 0.15140986641E+02 0.18745250435E+02 0.23362705823E+02 0.29156077181E+02
 0.36417898254E+02 0.45722214223E+02 0.57844545502E+02 0.73334427876E+02 0.91800164991E+02
 0.11179072453E+03 0.13007164890E+03 0.14157195626E+03 0.14236540362E+03 0.13355687663E+03
 0.12219696071E+03 0.13033487845E+03 0.13355687663E+03 0.14020207544E+03 0.14369457063E+03
 0.13900095715E+03 0.12579214088E+03 0.10754650962E+03 0.88400196795E+02 0.70891350849E+02
 0.56272690251E+02 0.44787408818E+02 0.35887602622E+02 0.28870673099E+02 0.23233890529E+02
 0.18725521174E+02 0.15199623167E+02 0.12492326211E+02 0.10428327660E+02 0.88675864250E+01
 0.77005268037E+01 0.68318544282E+01 0.61999152830E+01 0.57835923255E+01 0.55630900391E+01
 0.54976334472E+01 0.55630900391E+01 0.57835923255E+01 0.61999152830E+01 0.68318544282E+01
 0.77005268037E+01 0.88675864250E+01 0.10428327660E+02 0.12492326211E+02 0.15199623167E+02
 0.18725521174E+02 0.23233890529E+02 0.28870673099E+02 0.35887602622E+02 0.44787408818E+02
 0.56272690251E+02 0.70891350849E+02 0.88400196795E+02 0.10754650962E+03 0.12579214088E+03
 0.13900095715E+03 0.14369457063E+03 0.14020207544E+03 0.13355687663E+03 0.14130448523E+03
 0.14236540362E+03 0.14369457063E+03 0.14137087241E+03 0.13271495135E+03 0.11820442423E+03
 0.10065440667E+03 0.83013261361E+02 0.67061045627E+02 0.53806431224E+02 0.43297944434E+02
 0.35020145203E+02 0.28388747753E+02 0.23008069363E+02 0.18684974598E+02 0.15296397616E+02
 0.12690311003E+02 0.10699902466E+02 0.91895837645E+01 0.80553651511E+01 0.72112054179E+01
 0.66007417083E+01 0.61999152830E+01 0.59859864080E+01 0.59216365913E+01 0.59859864080E+01
 0.61999152830E+01 0.66007417083E+01 0.72112054179E+01 0.80553651511E+01 0.91895837645E+01
 0.10699902466E+02 0.12690311003E+02 0.15296397616E+02 0.18684974598E+02 0.23008069363E+02
 0.28388747753E+02 0.35020145203E+02 0.43297944434E+02 0.53806431224E+02 0.67061045627E+02
 0.83013261361E+02 0.10065440667E+03 0.11820442423E+03 0.13271495135E+03 0.14137087241E+03
 0.14369457063E+03 0.14236540362E+03 0.14213995556E+03 0.14157195626E+03 0.13900095715E+03
 0.13271495135E+03 0.12190010933E+03 0.10751335328E+03 0.91616350460E+02 0.76075665830E+02
 0.62197065351E+02 0.50652736650E+02 0.41346552100E+02 0.33843921853E+02 0.27712870803E+02
 0.22683022896E+02 0.18625227831E+02 0.15439223596E+02 0.12985161134E+02 0.11106681596E+02
 0.96751690507E+01 0.85945707564E+01 0.77899402175E+01 0.72112054179E+01 0.68318544282E+01
 0.66271009181E+01 0.65644819871E+01 0.66271009181E+01 0.68318544282E+01 0.72112054179E+01
 0.77899402175E+01 0.85945707564E+01 0.96751690507E+01 0.11106681596E+02 0.12985161134E+02
 0.15439223596E+02 0.18625227831E+02 0.22683022896E+02 0.27712870803E+02 0.33843921853E+02
 0.41346552100E+02 0.50652736650E+02 0.62197065351E+02 0.76075665830E+02 0.91616350460E+02
 0.10751335328E+03 0.12190010933E+03 0.13271495135E+03 0.13900095715E+03 0.14157195626E+03
 0.13141483795E+03 0.13007164890E+03 0.12579214088E+03 0.11820442423E+03 0.10751335328E+03
 0.94734367454E+02 0.81230138351E+02 0.68236063758E+02 0.56732934496E+02 0.47049333429E+02
 0.39042941053E+02 0.32403439808E+02 0.26863658762E+02 0.22275078840E+02 0.18564665120E+02
 0.15649520635E+02 0.13400590867E+02 0.11673766374E+02 0.10350575702E+02 0.93452317653E+01
 0.85945707564E+01 0.80553651511E+01 0.77005268037E+01 0.75057146810E+01 0.74449323633E+01
 0.75057146810E+01 0.77005268037E+01 0.80553651511E+01 0.85945707564E+01 0.93452317653E+01
 0.10350575702E+02 0.11673766374E+02 0.13400590867E+02 0.15649520635E+02 0.18564665120E+02
 0.22275078840E+02 0.26863658762E+02 0.32403439808E+02 0.39042941053E+02 0.47049333429E+02
 0.56732934496E+02 0.68236063758E+02 0.81230138351E+02 0.94734367454E+02 0.10751335328E+03
 0.11820442423E+03 0.12579214088E+03 0.13007164890E+03 0.11321250432E+03 0.11179072453E+03
 0.10754650962E+03 0.10065440667E+03 0.91616350460E+02 0.81230138351E+02 0.70442847238E+02
 0.60207409991E+02 0.51085279730E+02 0.43218169034E+02 0.36499109044E+02 0.30760411273E+02
 0.25885257752E+02 0.21823141133E+02 0.18539486040E+02 0.15961207734E+02 0.13969299859E+02
 0.12434716105E+02 0.11253008978E+02 0.10350575702E+02 0.96751690507E+01 0.91895837645E+01
 0.88675864250E+01 0.86873718172E+01 0.86300317418E+01 0.86873718172E+01 0.88675864250E+01
 0.91895837645E+01 0.96751690507E+01 0.10350575702E+02 0.11253008978E+02 0.12434716105E+02
 0.13969299859E+02 0.15961207734E+02 0.18539486040E+02 0.21823141133E+02 0.25885257752E+02
 0.30760411273E+02 0.36499109044E+02 0.43218169034E+02 0.51085279730E+02 0.60207409991E+02
 0.70442847238E+02 0.81230138351E+02 0.91616350460E+02 0.10065440667E+03 0.10754650962E+03
 0.11179072453E+03 0.92960280930E+02 0.91800164991E+02 0.88400196795E+02 0.83013261361E+02
 0.76075665830E+02 0.68236063758E+02 0.60207409991E+02 0.52549785043E+02 0.45565393098E+02
 0.39333189368E+02 0.33822066666E+02 0.28993706395E+02 0.24844031235E+02 0.21384335301E+02
 0.18598098183E+02 0.16416426270E+02 0.14731778931E+02 0.13433652364E+02 0.12434716105E+02
 0.11673766374E+02 0.11106681596E+02 0.10699902466E+02 0.10428327660E+02 0.10273660865E+02
 0.10223626678E+02 0.10273660865E+02 0.10428327660E+02 0.10699902466E+02 0.11106681596E+02
 0.11673766374E+02 0.12434716105E+02 0.13433652364E+02 0.14731778931E+02 0.16416426270E+02
 0.18598098183E+02 0.21384335301E+02 0.24844031235E+02 0.28993706395E+02 0.33822066666E+02
 0.39333189368E+02 0.45565393098E+02 0.52549785043E+02 0.60207409991E+02 0.68236063758E+02
 0.76075665830E+02 0.83013261361E+02 0.88400196795E+02 0.91800164991E+02 0.74172610809E+02
 0.73334427876E+02 0.70891350849E+02 0.67061045627E+02 0.62197065351E+02 0.56732934496E+02
 0.51085279730E+02 0.45565393098E+02 0.40350115711E+02 0.35518775743E+02 0.31116846732E+02
 0.27197789013E+02 0.23821777649E+02 0.21025531291E+02 0.18794988887E+02 0.17064196815E+02
 0.15739869236E+02 0.14731778931E+02 0.13969299859E+02 0.13400590867E+02 0.12985161134E+02
 0.12690311003E+02 0.12492326211E+02 0.12377409866E+02 0.12339595749E+02 0.12377409866E+02
 0.12492326211E+02 0.12690311003E+02 0.12985161134E+02 0.13400590867E+02 0.13969299859E+02
 0.14731778931E+02 0.15739869236E+02 0.17064196815E+02 0.18794988887E+02 0.21025531291E+02
 0.23821777649E+02 0.27197789013E+02 0.31116846732E+02 0.35518775743E+02 0.40350115711E+02
 0.45565393098E+02 0.51085279730E+02 0.56732934496E+02 0.62197065351E+02 0.67061045627E+02
 0.70891350849E+02 0.73334427876E+02 0.58384405271E+02 0.57844545502E+02 0.56272690251E+02
 0.53806431224E+02 0.50652736650E+02 0.47049333429E+02 0.43218169034E+02 0.39333189368E+02
 0.35518775743E+02 0.31873230943E+02 0.28493274540E+02 0.25477453577E+02 0.22906211363E+02
 0.20816057766E+02 0.19188876895E+02 0.17964110188E+02 0.17064196815E+02 0.16416426270E+02
 0.15961207734E+02 0.15649520635E+02 0.15439223596E+02 0.15296397616E+02 0.15199623167E+02
 0.15140986641E+02 0.15120989468E+02 0.15140986641E+02 0.15199623167E+02 0.15296397616E+02
 0.15439223596E+02 0.15649520635E+02 0.15961207734E+02 0.16416426270E+02 0.17064196815E+02
 0.17964110188E+02 0.19188876895E+02 0.20816057766E+02 0.22906211363E+02 0.25477453577E+02
 0.28493274540E+02 0.31873230943E+02 0.35518775743E+02 0.39333189368E+02 0.43218169034E+02
 0.47049333429E+02 0.50652736650E+02 0.53806431224E+02 0.56272690251E+02 0.57844545502E+02
 0.46040938543E+02 0.45722214223E+02 0.44787408818E+02 0.43297944434E+02 0.41346552100E+02
 0.39042941053E+02 0.36499109044E+02 0.33822066666E+02 0.31116846732E+02 0.28493274540E+02
 0.26065247315E+02 0.23936802714E+02 0.22180774440E+02 0.20823191355E+02 0.19843377698E+02
 0.19188876895E+02 0.18794988887E+02 0.18598098183E+02 0.18539486040E+02 0.18564665120E+02
 0.18625227831E+02 0.18684974598E+02 0.18725521174E+02 0.18745250435E+02 0.18750581728E+02
 0.18745250435E+02 0.18725521174E+02 0.18684974598E+02 0.18625227831E+02 0.18564665120E+02
 0.18539486040E+02 0.18598098183E+02 0.18794988887E+02 0.19188876895E+02 0.19843377698E+02
 0.20823191355E+02 0.22180774440E+02 0.23936802714E+02 0.26065247315E+02 0.28493274540E+02
 0.31116846732E+02 0.33822066666E+02 0.36499109044E+02 0.39042941053E+02 0.41346552100E+02
 0.43297944434E+02 0.44787408818E+02 0.45722214223E+02 0.36596156237E+02 0.36417898254E+02
 0.35887602622E+02 0.35020145203E+02 0.33843921853E+02 0.32403439808E+02 0.30760411273E+02
 0.28993706395E+02 0.27197789013E+02 0.25477453577E+02 0.23936802714E+02 0.22663662143E+02
 0.21714684304E+02 0.21107526715E+02 0.20823191355E+02 0.20816057766E+02 0.21025531291E+02
 0.21384335301E+02 0.21823141133E+02 0.22275078840E+02 0.22683022896E+02 0.23008069363E+02
 0.23233890529E+02 0.23362705823E+02 0.23404024171E+02 0.23362705823E+02 0.23233890529E+02
 0.23008069363E+02 0.22683022896E+02 0.22275078840E+02 0.21823141133E+02 0.21384335301E+02
 0.21025531291E+02 0.20816057766E+02 0.20823191355E+02 0.21107526715E+02 0.21714684304E+02
 0.22663662143E+02 0.23936802714E+02 0.25477453577E+02 0.27197789013E+02 0.28993706395E+02
 0.30760411273E+02 0.32403439808E+02 0.33843921853E+02 0.35020145203E+02 0.35887602622E+02
 0.36417898254E+02 0.29250178387E+02 0.29156077181E+02 0.28870673099E+02 0.28388747753E+02
 0.27712870803E+02 0.26863658762E+02 0.25885257752E+02 0.24844031235E+02 0.23821777649E+02
 0.22906211363E+02 0.22180774440E+02 0.21714684304E+02 0.21553935325E+02 0.21714684304E+02
 0.22180774440E+02 0.22906211363E+02 0.23821777649E+02 0.24844031235E+02 0.25885257752E+02
 0.26863658762E+02 0.27712870803E+02 0.28388747753E+02 0.28870673099E+02 0.29156077181E+02
 0.29250178387E+02 0.29156077181E+02 0.28870673099E+02 0.28388747753E+02 0.27712870803E+02
 0.26863658762E+02 0.25885257752E+02 0.24844031235E+02 0.23821777649E+02 0.22906211363E+02
 0.22180774440E+02 0.21714684304E+02 0.21553935325E+02 0.21714684304E+02 0.22180774440E+02
 0.22906211363E+02 0.23821777649E+02 0.24844031235E+02 0.25885257752E+02 0.26863658762E+02
 0.27712870803E+02 0.28388747753E+02 0.28870673099E+02 0.29156077181E+02 0.23404024171E+02
 0.23362705823E+02 0.23233890529E+02 0.23008069363E+02 0.22683022896E+02 0.22275078840E+02
 0.21823141133E+02 0.21384335301E+02 0.21025531291E+02 0.20816057766E+02 0.20823191355E+02
 0.21107526715E+02 0.21714684304E+02 0.22663662143E+02 0.23936802714E+02 0.25477453577E+02
 0.27197789013E+02 0.28993706395E+02 0.30760411273E+02 0.32403439808E+02 0.33843921853E+02
 0.35020145203E+02 0.35887602622E+02 0.36417898254E+02 0.36596156237E+02 0.36417898254E+02
 0.35887602622E+02 0.35020145203E+02 0.33843921853E+02 0.32403439808E+02 0.30760411273E+02
 0.28993706395E+02 0.27197789013E+02 0.25477453577E+02 0.23936802714E+02 0.22663662143E+02
 0.21714684304E+02 0.21107526715E+02 0.20823191355E+02 0.20816057766E+02 0.21025531291E+02
 0.21384335301E+02 0.21823141133E+02 0.22275078840E+02 0.22683022896E+02 0.23008069363E+02
 0.23233890529E+02 0.23362705823E+02 0.18750581728E+02 0.18745250435E+02 0.18725521174E+02
 0.18684974598E+02 0.18625227831E+02 0.18564665120E+02 0.18539486040E+02 0.18598098183E+02
 0.18794988887E+02 0.19188876895E+02 0.19843377698E+02 0.20823191355E+02 0.22180774440E+02
 0.23936802714E+02 0.26065247315E+02 0.28493274540E+02 0.31116846732E+02 0.33822066666E+02
 0.36499109044E+02 0.39042941053E+02 0.41346552100E+02 0.43297944434E+02 0.44787408818E+02
 0.45722214223E+02 0.46040938543E+02 0.45722214223E+02 0.44787408818E+02 0.43297944434E+02
 0.41346552100E+02 0.39042941053E+02 0.36499109044E+02 0.33822066666E+02 0.31116846732E+02
 0.28493274540E+02 0.26065247315E+02 0.23936802714E+02 0.22180774440E+02 0.20823191355E+02
 0.19843377698E+02 0.19188876895E+02 0.18794988887E+02 0.18598098183E+02 0.18539486040E+02
 0.18564665120E+02 0.18625227831E+02 0.18684974598E+02 0.18725521174E+02 0.18745250435E+02
 0.15120989468E+02 0.15140986641E+02 0.15199623167E+02 0.15296397616E+02 0.15439223596E+02
 0.15649520635E+02 0.15961207734E+02 0.16416426270E+02 0.17064196815E+02 0.17964110188E+02
 0.19188876895E+02 0.20816057766E+02 0.22906211363E+02 0.25477453577E+02 0.28493274540E+02
 0.31873230943E+02 0.35518775743E+02 0.39333189368E+02 0.43218169034E+02 0.47049333429E+02
 0.50652736650E+02 0.53806431224E+02 0.56272690251E+02 0.57844545502E+02 0.58384405271E+02
 0.57844545502E+02 0.56272690251E+02 0.53806431224E+02 0.50652736650E+02 0.47049333429E+02
 0.43218169034E+02 0.39333189368E+02 0.35518775743E+02 0.31873230943E+02 0.28493274540E+02
 0.25477453577E+02 0.22906211363E+02 0.20816057766E+02 0.19188876895E+02 0.17964110188E+02
 0.17064196815E+02 0.16416426270E+02 0.15961207734E+02 0.15649520635E+02 0.15439223596E+02
 0.15296397616E+02 0.15199623167E+02 0.15140986641E+02 0.12339595749E+02 0.12377409866E+02
 0.12492326211E+02 0.12690311003E+02 0.12985161134E+02 0.13400590867E+02 0.13969299859E+02
 0.14731778931E+02 0.15739869236E+02 0.17064196815E+02 0.18794988887E+02 0.21025531291E+02
 0.23821777649E+02 0.27197789013E+02 0.31116846732E+02 0.35518775743E+02 0.40350115711E+02
 0.45565393098E+02 0.51085279730E+02 0.56732934496E+02 0.62197065351E+02 0.67061045627E+02
 0.70891350849E+02 0.73334427876E+02 0.74172610809E+02 0.73334427876E+02 0.70891350849E+02
 0.67061045627E+02 0.62197065351E+02 0.56732934496E+02 0.51085279730E+02 0.45565393098E+02
 0.40350115711E+02 0.35518775743E+02 0.31116846732E+02 0.27197789013E+02 0.23821777649E+02
 0.21025531291E+02 0.18794988887E+02 0.17064196815E+02 0.15739869236E+02 0.14731778931E+02
 0.13969299859E+02 0.13400590867E+02 0.12985161134E+02 0.12690311003E+02 0.12492326211E+02
 0.12377409866E+02 0.10223626678E+02 0.10273660865E+02 0.10428327660E+02 0.10699902466E+02
 0.11106681596E+02 0.11673766374E+02 0.12434716105E+02 0.13433652364E+02 0.14731778931E+02
 0.16416426270E+02 0.18598098183E+02 0.21384335301E+02 0.24844031235E+02 0.28993706395E+02
 0.33822066666E+02 0.39333189368E+02 0.45565393098E+02 0.52549785043E+02 0.60207409991E+02
 0.68236063758E+02 0.76075665830E+02 0.83013261361E+02 0.88400196795E+02 0.91800164991E+02
 0.92960280930E+02 0.91800164991E+02 0.88400196795E+02 0.83013261361E+02 0.76075665830E+02
 0.68236063758E+02 0.60207409991E+02 0.52549785043E+02 0.45565393098E+02 0.39333189368E+02
 0.33822066666E+02 0.28993706395E+02 0.24844031235E+02 0.21384335301E+02 0.18598098183E+02
 0.16416426270E+02 0.14731778931E+02 0.13433652364E+02 0.12434716105E+02 0.11673766374E+02
 0.11106681596E+02 0.10699902466E+02 0.10428327660E+02 0.10273660865E+02 0.86300317418E+01
 0.86873718172E+01 0.88675864250E+01 0.91895837645E+01 0.96751690507E+01 0.10350575702E+02
 0.11253008978E+02 0.12434716105E+02 0.13969299859E+02 0.15961207734E+02 0.18539486040E+02
 0.21823141133E+02 0.25885257752E+02 0.30760411273E+02 0.36499109044E+02 0.43218169034E+02
 0.51085279730E+02 0.60207409991E+02 0.70442847238E+02 0.81230138351E+02 0.91616350460E+02
 0.10065440667E+03 0.10754650962E+03 0.11179072453E+03 0.11321250432E+03 0.11179072453E+03
 0.10754650962E+03 0.10065440667E+03 0.91616350460E+02 0.81230138351E+02 0.70442847238E+02
 0.60207409991E+02 0.51085279730E+02 0.43218169034E+02 0.36499109044E+02 0.30760411273E+02
 0.25885257752E+02 0.21823141133E+02 0.18539486040E+02 0.15961207734E+02 0.13969299859E+02
 0.12434716105E+02 0.11253008978E+02 0.10350575702E+02 0.96751690507E+01 0.91895837645E+01
 0.88675864250E+01 0.86873718172E+01 0.74449323633E+01 0.75057146810E+01 0.77005268037E+01
 0.80553651511E+01 0.85945707564E+01 0.93452317653E+01 0.10350575702E+02 0.11673766374E+02
 0.13400590867E+02 0.15649520635E+02 0.18564665120E+02 0.22275078840E+02 0.26863658762E+02
 0.32403439808E+02 0.39042941053E+02 0.47049333429E+02 0.56732934496E+02 0.68236063758E+02
 0.81230138351E+02 0.94734367454E+02 0.10751335328E+03 0.11820442423E+03 0.12579214088E+03
 0.13007164890E+03 0.13141483795E+03 0.13007164890E+03 0.12579214088E+03 0.11820442423E+03
 0.10751335328E+03 0.94734367454E+02 0.81230138351E+02 0.68236063758E+02 0.56732934496E+02
 0.47049333429E+02 0.39042941053E+02 0.32403439808E+02 0.26863658762E+02 0.22275078840E+02
 0.18564665120E+02 0.15649520635E+02 0.13400590867E+02 0.11673766374E+02 0.10350575702E+02
 0.93452317653E+01 0.85945707564E+01 0.80553651511E+01 0.77005268037E+01 0.75057146810E+01
 0.65644819871E+01 0.66271009181E+01 0.68318544282E+01 0.72112054179E+01 0.77899402175E+01
 0.85945707564E+01 0.96751690507E+01 0.11106681596E+02 0.12985161134E+02 0.15439223596E+02
 0.18625227831E+02 0.22683022896E+02 0.27712870803E+02 0.33843921853E+02 0.41346552100E+02
 0.50652736650E+02 0.62197065351E+02 0.76075665830E+02 0.91616350460E+02 0.10751335328E+03
 0.12190010933E+03 0.13271495135E+03 0.13900095715E+03 0.14157195626E+03 0.14213995556E+03
 0.14157195626E+03 0.13900095715E+03 0.13271495135E+03 0.12190010933E+03 0.10751335328E+03
 0.91616350460E+02 0.76075665830E+02 0.62197065351E+02 0.50652736650E+02 0.41346552100E+02
 0.33843921853E+02 0.27712870803E+02 0.22683022896E+02 0.18625227831E+02 0.15439223596E+02
 0.12985161134E+02 0.11106681596E+02 0.96751690507E+01 0.85945707564E+01 0.77899402175E+01
 0.72112054179E+01 0.68318544282E+01 0.66271009181E+01 0.59216365913E+01 0.59859864080E+01
 0.61999152830E+01 0.66007417083E+01 0.72112054179E+01 0.80553651511E+01 0.91895837645E+01
 0.10699902466E+02 0.12690311003E+02 0.15296397616E+02 0.18684974598E+02 0.23008069363E+02
 0.28388747753E+02 0.35020145203E+02 0.43297944434E+02 0.53806431224E+02 0.67061045627E+02
 0.83013261361E+02 0.10065440667E+03 0.11820442423E+03 0.13271495135E+03 0.14137087241E+03
 0.14369457063E+03 0.14236540362E+03 0.14130448523E+03 0.14236540362E+03 0.14369457063E+03
 0.14137087241E+03 0.13271495135E+03 0.11820442423E+03 0.10065440667E+03 0.83013261361E+02
 0.67061045627E+02 0.53806431224E+02 0.43297944434E+02 0.35020145203E+02 0.28388747753E+02
 0.23008069363E+02 0.18684974598E+02 0.15296397616E+02 0.12690311003E+02 0.10699902466E+02
 0.91895837645E+01 0.80553651511E+01 0.72112054179E+01 0.66007417083E+01 0.61999152830E+01
 0.59859864080E+01 0.54976334472E+01 0.55630900391E+01 0.57835923255E+01 0.61999152830E+01
 0.68318544282E+01 0.77005268037E+01 0.88675864250E+01 0.10428327660E+02 0.12492326211E+02
 0.15199623167E+02 0.18725521174E+02 0.23233890529E+02 0.28870673099E+02 0.35887602622E+02
 0.44787408818E+02 0.56272690251E+02 0.70891350849E+02 0.88400196795E+02 0.10754650962E+03
 0.12579214088E+03 0.13900095715E+03 0.14369457063E+03 0.14020207544E+03 0.13355687663E+03
 0.13033487845E+03 0.13355687663E+03 0.14020207544E+03 0.14369457063E+03 0.13900095715E+03
 0.12579214088E+03 0.10754650962E+03 0.88400196795E+02 0.70891350849E+02 0.56272690251E+02
 0.44787408818E+02 0.35887602622E+02 0.28870673099E+02 0.23233890529E+02 0.18725521174E+02
 0.15199623167E+02 0.12492326211E+02 0.10428327660E+02 0.88675864250E+01 0.77005268037E+01
 0.68318544282E+01 0.61999152830E+01 0.57835923255E+01 0.55630900391E+01 0.52752095672E+01
 0.53405741623E+01 0.55630900391E+01 0.59859864080E+01 0.66271009181E+01 0.75057146810E+01
 0.86873718172E+01 0.10273660865E+02 0.12377409866E+02 0.15140986641E+02 0.18745250435E+02
 0.23362705823E+02 0.29156077181E+02 0.36417898254E+02 0.45722214223E+02 0.57844545502E+02
 0.73334427876E+02 0.91800164991E+02 0.11179072453E+03 0.13007164890E+03 0.14157195626E+03
 0.14236540362E+03 0.13355687663E+03 0.12219696071E+03 0.11708084641E+03 0.12219696071E+03
 0.13355687663E+03 0.14236540362E+03 0.14157195626E+03 0.13007164890E+03 0.11179072453E+03
 0.91800164991E+02 0.73334427876E+02 0.57844545502E+02 0.45722214223E+02 0.36417898254E+02
 0.29156077181E+02 0.23362705823E+02 0.18745250435E+02 0.15140986641E+02 0.12377409866E+02
 0.10273660865E+02 0.86873718172E+01 0.75057146810E+01 0.66271009181E+01 0.59859864080E+01
 0.55630900391E+01 0.53405741623E+01 0.52101615053E+01 0.52752095672E+01 0.54976334472E+01
 0.59216365913E+01 0.65644819871E+01 0.74449323633E+01 0.86300317418E+01 0.10223626678E+02
 0.12339595749E+02 0.15120989468E+02 0.18750581728E+02 0.23404024171E+02 0.29250178387E+02
 0.36596156237E+02 0.46040938543E+02 0.58384405271E+02 0.74172610809E+02 0.92960280930E+02
 0.11321250432E+03 0.13141483795E+03 0.14213995556E+03 0.14130448523E+03 0.13033487845E+03
 0.11708084641E+03 0.11120740830E+03 0.11708084641E+03 0.13033487845E+03 0.14130448523E+03
 0.14213995556E+03 0.13141483795E+03 0.11321250432E+03 0.92960280930E+02 0.74172610809E+02
 0.58384405271E+02 0.46040938543E+02 0.36596156237E+02 0.29250178387E+02 0.23404024171E+02
 0.18750581728E+02 0.15120989468E+02 0.12339595749E+02 0.10223626678E+02 0.86300317418E+01
 0.74449323633E+01 0.65644819871E+01 0.59216365913E+01 0.54976334472E+01 0.52752095672E+01
 0.52752095672E+01 0.53405741623E+01 0.55630900391E+01 0.59859864080E+01 0.66271009181E+01
 0.75057146810E+01 0.86873718172E+01 0.10273660865E+02 0.12377409866E+02 0.15140986641E+02
 0.18745250435E+02 0.23362705823E+02 0.29156077181E+02 0.36417898254E+02 0.45722214223E+02
 0.57844545502E+02 0.73334427876E+02 0.91800164991E+02 0.11179072453E+03 0.13007164890E+03
 0.14157195626E+03 0.14236540362E+03 0.13355687663E+03 0.12219696071E+03 0.11708084641E+03
 0.12219696071E+03 0.13355687663E+03 0.14236540362E+03 0.14157195626E+03 0.13007164890E+03
 0.11179072453E+03 0.91800164991E+02 0.73334427876E+02 0.57844545502E+02 0.45722214223E+02
 0.36417898254E+02 0.29156077181E+02 0.23362705823E+02 0.18745250435E+02 0.15140986641E+02
 0.12377409866E+02 0.10273660865E+02 0.86873718172E+01 0.75057146810E+01 0.66271009181E+01
 0.59859864080E+01 0.55630900391E+01 0.53405741623E+01 0.54976334472E+01 0.55630900391E+01
 0.57835923255E+01 0.61999152830E+01 0.68318544282E+01 0.77005268037E+01 0.88675864250E+01
 0.10428327660E+02 0.12492326211E+02 0.15199623167E+02 0.18725521174E+02 0.23233890529E+02
 0.28870673099E+02 0.35887602622E+02 0.44787408818E+02 0.56272690251E+02 0.70891350849E+02
 0.88400196795E+02 0.10754650962E+03 0.12579214088E+03 0.13900095715E+03 0.14369457063E+03
 0.14020207544E+03 0.13355687663E+03 0.13033487845E+03 0.13355687663E+03 0.14020207544E+03
 0.14369457063E+03 0.13900095715E+03 0.12579214088E+03 0.10754650962E+03 0.88400196795E+02
 0.70891350849E+02 0.56272690251E+02 0.44787408818E+02 0.35887602622E+02 0.28870673099E+02
 0.23233890529E+02 0.18725521174E+02 0.15199623167E+02 0.12492326211E+02 0.10428327660E+02
 0.88675864250E+01 0.77005268037E+01 0.68318544282E+01 0.61999152830E+01 0.57835923255E+01
 0.55630900391E+01 0.59216365913E+01 0.59859864080E+01 0.61999152830E+01 0.66007417083E+01
 0.72112054179E+01 0.80553651511E+01 0.91895837645E+01 0.10699902466E+02 0.12690311003E+02
 0.15296397616E+02 0.18684974598E+02 0.23008069363E+02 0.28388747753E+02 0.35020145203E+02
 0.43297944434E+02 0.53806431224E+02 0.67061045627E+02 0.83013261361E+02 0.10065440667E+03
 0.11820442423E+03 0.13271495135E+03 0.14137087241E+03 0.14369457063E+03 0.14236540362E+03
 0.14130448523E+03 0.14236540362E+03 0.14369457063E+03 0.14137087241E+03 0.13271495135E+03
 0.11820442423E+03 0.10065440667E+03 0.83013261361E+02 0.67061045627E+02 0.53806431224E+02
 0.43297944434E+02 0.35020145203E+02 0.28388747753E+02 0.23008069363E+02 0.18684974598E+02
 0.15296397616E+02 0.12690311003E+02 0.10699902466E+02 0.91895837645E+01 0.80553651511E+01
 0.72112054179E+01 0.66007417083E+01 0.61999152830E+01 0.59859864080E+01 0.65644819871E+01
 0.66271009181E+01 0.68318544282E+01 0.72112054179E+01 0.77899402175E+01 0.85945707564E+01
 0.96751690507E+01 0.11106681596E+02 0.12985161134E+02 0.15439223596E+02 0.18625227831E+02
 0.22683022896E+02 0.27712870803E+02 0.33843921853E+02 0.41346552100E+02 0.50652736650E+02
 0.62197065351E+02 0.76075665830E+02 0.91616350460E+02 0.10751335328E+03 0.12190010933E+03
 0.13271495135E+03 0.13900095715E+03 0.14157195626E+03 0.14213995556E+03 0.14157195626E+03
 0.13900095715E+03 0.13271495135E+03 0.12190010933E+03 0.10751335328E+03 0.91616350460E+02
 0.76075665830E+02 0.62197065351E+02 0.50652736650E+02 0.41346552100E+02 0.33843921853E+02
 0.27712870803E+02 0.22683022896E+02 0.18625227831E+02 0.15439223596E+02 0.12985161134E+02
 0.11106681596E+02 0.96751690507E+01 0.85945707564E+01 0.77899402175E+01 0.72112054179E+01
 0.68318544282E+01 0.66271009181E+01 0.74449323633E+01 0.75057146810E+01 0.77005268037E+01
 0.80553651511E+01 0.85945707564E+01 0.93452317653E+01 0.10350575702E+02 0.11673766374E+02
 0.13400590867E+02 0.15649520635E+02 0.18564665120E+02 0.22275078840E+02 0.26863658762E+02
 0.32403439808E+02 0.39042941053E+02 0.47049333429E+02 0.56732934496E+02 0.68236063758E+02
 0.81230138351E+02 0.94734367454E+02 0.10751335328E+03 0.11820442423E+03 0.12579214088E+03
 0.13007164890E+03 0.13141483795E+03 0.13007164890E+03 0.12579214088E+03 0.11820442423E+03
 0.10751335328E+03 0.94734367454E+02 0.81230138351E+02 0.68236063758E+02 0.56732934496E+02
 0.47049333429E+02 0.39042941053E+02 0.32403439808E+02 0.26863658762E+02 0.22275078840E+02
 0.18564665120E+02 0.15649520635E+02 0.13400590867E+02 0.11673766374E+02 0.10350575702E+02
 0.93452317653E+01 0.85945707564E+01 0.80553651511E+01 0.77005268037E+01 0.75057146810E+01
 0.86300317418E+01 0.86873718172E+01 0.88675864250E+01 0.91895837645E+01 0.96751690507E+01
 0.10350575702E+02 0.11253008978E+02 0.12434716105E+02 0.13969299859E+02 0.15961207734E+02
 0.18539486040E+02 0.21823141133E+02 0.25885257752E+02 0.30760411273E+02 0.36499109044E+02
 0.43218169034E+02 0.51085279730E+02 0.60207409991E+02 0.70442847238E+02 0.81230138351E+02
 0.91616350460E+02 0.10065440667E+03 0.10754650962E+03 0.11179072453E+03 0.11321250432E+03
 0.11179072453E+03 0.10754650962E+03 0.10065440667E+03 0.91616350460E+02 0.81230138351E+02
 0.70442847238E+02 0.60207409991E+02 0.51085279730E+02 0.43218169034E+02 0.36499109044E+02
 0.30760411273E+02 0.25885257752E+02 0.21823141133E+02 0.18539486040E+02 0.15961207734E+02
 0.13969299859E+02 0.12434716105E+02 0.11253008978E+02 0.10350575702E+02 0.96751690507E+01
 0.91895837645E+01 0.88675864250E+01 0.86873718172E+01 0.10223626678E+02 0.10273660865E+02
 0.10428327660E+02 0.10699902466E+02 0.11106681596E+02 0.11673766374E+02 0.12434716105E+02
 0.13433652364E+02 0.14731778931E+02 0.16416426270E+02 0.18598098183E+02 0.21384335301E+02
 0.24844031235E+02 0.28993706395E+02 0.33822066666E+02 0.39333189368E+02 0.45565393098E+02
 0.52549785043E+02 0.60207409991E+02 0.68236063758E+02 0.76075665830E+02 0.83013261361E+02
 0.88400196795E+02 0.91800164991E+02 0.92960280930E+02 0.91800164991E+02 0.88400196795E+02
 0.83013261361E+02 0.76075665830E+02 0.68236063758E+02 0.60207409991E+02 0.52549785043E+02
 0.45565393098E+02 0.39333189368E+02 0.33822066666E+02 0.28993706395E+02 0.24844031235E+02
 0.21384335301E+02 0.18598098183E+02 0.16416426270E+02 0.14731778931E+02 0.13433652364E+02
 0.12434716105E+02 0.11673766374E+02 0.11106681596E+02 0.10699902466E+02 0.10428327660E+02
 0.10273660865E+02 0.12339595749E+02 0.12377409866E+02 0.12492326211E+02 0.12690311003E+02
 0.12985161134E+02 0.13400590867E+02 0.13969299859E+02 0.14731778931E+02 0.15739869236E+02
 0.17064196815E+02 0.18794988887E+02 0.21025531291E+02 0.23821777649E+02 0.27197789013E+02
 0.31116846732E+02 0.35518775743E+02 0.40350115711E+02 0.45565393098E+02 0.51085279730E+02
 0.56732934496E+02 0.62197065351E+02 0.67061045627E+02 0.70891350849E+02 0.73334427876E+02
 0.74172610809E+02 0.73334427876E+02 0.70891350849E+02 0.67061045627E+02 0.62197065351E+02
 0.56732934496E+02 0.51085279730E+02 0.45565393098E+02 0.40350115711E+02 0.35518775743E+02
 0.31116846732E+02 0.27197789013E+02 0.23821777649E+02 0.21025531291E+02 0.18794988887E+02
 0.17064196815E+02 0.15739869236E+02 0.14731778931E+02 0.13969299859E+02 0.13400590867E+02
 0.12985161134E+02 0.12690311003E+02 0.12492326211E+02 0.12377409866E+02 0.15120989468E+02
 0.15140986641E+02 0.15199623167E+02 0.15296397616E+02 0.15439223596E+02 0.15649520635E+02
 0.15961207734E+02 0.16416426270E+02 0.17064196815E+02 0.17964110188E+02 0.19188876895E+02
 0.20816057766E+02 0.22906211363E+02 0.25477453577E+02 0.28493274540E+02 0.31873230943E+02
 0.35518775743E+02 0.39333189368E+02 0.43218169034E+02 0.47049333429E+02 0.50652736650E+02
 0.53806431224E+02 0.56272690251E+02 0.57844545502E+02 0.58384405271E+02 0.57844545502E+02
 0.56272690251E+02 0.53806431224E+02 0.50652736650E+02 0.47049333429E+02 0.43218169034E+02
 0.39333189368E+02 0.35518775743E+02 0.31873230943E+02 0.28493274540E+02 0.25477453577E+02