   8   8   1   0
  0.1050029E+02  0.4379560E-09  0.4379560E-09  0.4379560E-09  0.5000000E-15
  1.000000000000000E-004
  CAR 
 unknown system                          
     32.17725589     -9.34403736 1000      7.98783599      1.00000000
     -9.344  0.0000E+00  0.0000E+00
     -9.302  0.0000E+00  0.0000E+00
     -9.261  0.0000E+00  0.0000E+00
     -9.219  0.0000E+00  0.0000E+00
     -9.178  0.0000E+00  0.0000E+00
     -9.136  0.0000E+00  0.0000E+00
     -9.095  0.0000E+00  0.0000E+00
     -9.053  0.0000E+00  0.0000E+00
     -9.012  0.0000E+00  0.0000E+00
     -8.970  0.0000E+00  0.0000E+00
     -8.928  0.0000E+00  0.0000E+00
     -8.887  0.0000E+00  0.0000E+00
     -8.845  0.0000E+00  0.0000E+00
     -8.804  0.0000E+00  0.0000E+00
     -8.762  0.0000E+00  0.0000E+00
     -8.721  0.0000E+00  0.0000E+00
     -8.679  0.0000E+00  0.0000E+00
     -8.637  0.0000E+00  0.0000E+00
     -8.596  0.0000E+00  0.0000E+00
     -8.554  0.0000E+00  0.0000E+00
     -8.513  0.0000E+00  0.0000E+00
     -8.471  0.0000E+00  0.0000E+00
     -8.430  0.0000E+00  0.0000E+00
     -8.388  0.0000E+00  0.0000E+00
     -8.347  0.0000E+00  0.0000E+00
     -8.305  0.0000E+00  0.0000E+00
     -8.263  0.0000E+00  0.0000E+00
     -8.222  0.0000E+00  0.0000E+00
     -8.180  0.0000E+00  0.0000E+00
     -8.139  0.0000E+00  0.0000E+00
     -8.097  0.0000E+00  0.0000E+00
     -8.056  0.0000E+00  0.0000E+00
     -8.014  0.0000E+00  0.0000E+00
     -7.972  0.0000E+00  0.0000E+00
     -7.931  0.0000E+00  0.0000E+00
     -7.889  0.0000E+00  0.0000E+00
     -7.848  0.0000E+00  0.0000E+00
     -7.806  0.0000E+00  0.0000E+00
     -7.765  0.0000E+00  0.0000E+00
     -7.723  0.0000E+00  0.0000E+00
     -7.682  0.0000E+00  0.0000E+00
     -7.640  0.0000E+00  0.0000E+00
     -7.598  0.0000E+00  0.0000E+00
     -7.557  0.0000E+00  0.0000E+00
     -7.515  0.0000E+00  0.0000E+00
     -7.474  0.0000E+00  0.0000E+00
     -7.432  0.0000E+00  0.0000E+00
     -7.391  0.0000E+00  0.0000E+00
     -7.349  0.0000E+00  0.0000E+00
     -7.307  0.1136E-02  0.1385E-04
     -7.266  0.5182E-02  0.1350E-03
     -7.224  0.1216E-01  0.4852E-03
     -7.183  0.2207E-01  0.1187E-02
     -7.141  0.3491E-01  0.2361E-02
     -7.100  0.5069E-01  0.4129E-02
     -7.058  0.6940E-01  0.6615E-02
     -7.017  0.9104E-01  0.9939E-02
     -6.975  0.1156E+00  0.1422E-01
     -6.933  0.1431E+00  0.1959E-01
     -6.892  0.1735E+00  0.2616E-01
     -6.850  0.2069E+00  0.3406E-01
     -6.809  0.2432E+00  0.4340E-01
     -6.767  0.2824E+00  0.5431E-01
     -6.726  0.3246E+00  0.6692E-01
     -6.684  0.3697E+00  0.8134E-01
     -6.642  0.4177E+00  0.9769E-01
     -6.601  0.5298E+00  0.1171E+00
     -6.559  0.6544E+00  0.1417E+00
     -6.518  0.7726E+00  0.1714E+00
     -6.476  0.8845E+00  0.2059E+00
     -6.435  0.9901E+00  0.2448E+00
     -6.393  0.1089E+01  0.2881E+00
     -6.352  0.1182E+01  0.3353E+00
     -6.310  0.1269E+01  0.3863E+00
     -6.268  0.1349E+01  0.4407E+00
     -6.227  0.1423E+01  0.4983E+00
     -6.185  0.1491E+01  0.5589E+00
     -6.144  0.1552E+01  0.6222E+00
     -6.102  0.1607E+01  0.6879E+00
     -6.061  0.1656E+01  0.7557E+00
     -6.019  0.1698E+01  0.8254E+00
     -5.977  0.1734E+01  0.8968E+00
     -5.936  0.2455E+01  0.9773E+00
     -5.894  0.2313E+01  0.1076E+01
     -5.853  0.2175E+01  0.1170E+01
     -5.811  0.2040E+01  0.1257E+01
     -5.770  0.1908E+01  0.1339E+01
     -5.728  0.1781E+01  0.1416E+01
     -5.687  0.1657E+01  0.1487E+01
     -5.645  0.1537E+01  0.1554E+01
     -5.603  0.1421E+01  0.1615E+01
     -5.562  0.1308E+01  0.1672E+01
     -5.520  0.1199E+01  0.1724E+01
     -5.479  0.1093E+01  0.1771E+01
     -5.437  0.9917E+00  0.1815E+01
     -5.396  0.8937E+00  0.1854E+01
     -5.354  0.7993E+00  0.1889E+01
     -5.312  0.7087E+00  0.1920E+01
     -5.271  0.0000E+00  0.2000E+01
     -5.229  0.0000E+00  0.2000E+01
     -5.188  0.0000E+00  0.2000E+01
     -5.146  0.0000E+00  0.2000E+01
     -5.105  0.0000E+00  0.2000E+01
     -5.063  0.0000E+00  0.2000E+01
     -5.022  0.0000E+00  0.2000E+01
     -4.980  0.0000E+00  0.2000E+01
     -4.938  0.0000E+00  0.2000E+01
     -4.897  0.0000E+00  0.2000E+01
     -4.855  0.0000E+00  0.2000E+01
     -4.814  0.0000E+00  0.2000E+01
     -4.772  0.0000E+00  0.2000E+01
     -4.731  0.0000E+00  0.2000E+01
     -4.689  0.0000E+00  0.2000E+01
     -4.647  0.0000E+00  0.2000E+01
     -4.606  0.0000E+00  0.2000E+01
     -4.564  0.2522E+00  0.2005E+01
     -4.523  0.5080E+00  0.2021E+01
     -4.481  0.7506E+00  0.2047E+01
     -4.440  0.9801E+00  0.2083E+01
     -4.398  0.1196E+01  0.2128E+01
     -4.356  0.1400E+01  0.2182E+01
     -4.315  0.1589E+01  0.2244E+01
     -4.273  0.1766E+01  0.2314E+01
     -4.232  0.1930E+01  0.2391E+01
     -4.190  0.2080E+01  0.2474E+01
     -4.149  0.2218E+01  0.2564E+01
     -4.107  0.2342E+01  0.2659E+01
     -4.066  0.2453E+01  0.2758E+01
     -4.024  0.6917E+01  0.2927E+01
     -3.982  0.6521E+01  0.3206E+01
     -3.941  0.6129E+01  0.3469E+01
     -3.899  0.5740E+01  0.3715E+01
     -3.858  0.5354E+01  0.3946E+01
     -3.816  0.4972E+01  0.4160E+01
     -3.775  0.4594E+01  0.4359E+01
     -3.733  0.4219E+01  0.4542E+01
     -3.691  0.3847E+01  0.4710E+01
     -3.650  0.1793E+01  0.5013E+01
     -3.608  0.1820E+01  0.5088E+01
     -3.567  0.1850E+01  0.5164E+01
     -3.525  0.1881E+01  0.5242E+01
     -3.484  0.1915E+01  0.5320E+01
     -3.442  0.1950E+01  0.5401E+01
     -3.401  0.1987E+01  0.5483E+01
     -3.359  0.2026E+01  0.5566E+01
     -3.317  0.2068E+01  0.5651E+01
     -3.276  0.2111E+01  0.5738E+01
     -3.234  0.2156E+01  0.5826E+01
     -3.193  0.2202E+01  0.5917E+01
     -3.151  0.2251E+01  0.6010E+01
     -3.110  0.2302E+01  0.6104E+01
     -3.068  0.2355E+01  0.6201E+01
     -3.026  0.2409E+01  0.6300E+01
     -2.985  0.2466E+01  0.6401E+01
     -2.943  0.2525E+01  0.6505E+01
     -2.902  0.2585E+01  0.6611E+01
     -2.860  0.2647E+01  0.6720E+01
     -2.819  0.2712E+01  0.6831E+01
     -2.777  0.2607E+01  0.6945E+01
     -2.736  0.2560E+01  0.7052E+01
     -2.694  0.2504E+01  0.7158E+01
     -2.652  0.2438E+01  0.7260E+01
     -2.611  0.2363E+01  0.7360E+01
     -2.569  0.2279E+01  0.7457E+01
     -2.528  0.2185E+01  0.7549E+01
     -2.486  0.2082E+01  0.7638E+01
     -2.445  0.1970E+01  0.7722E+01
     -2.403  0.1849E+01  0.7802E+01
     -2.361  0.1661E+01  0.7875E+01
     -2.320  0.1305E+01  0.7938E+01
     -2.278  0.7779E+00  0.7981E+01
     -2.237  0.7962E-01  0.8000E+01
     -2.195  0.0000E+00  0.8000E+01
     -2.154  0.0000E+00  0.8000E+01
     -2.112  0.0000E+00  0.8000E+01
     -2.071  0.0000E+00  0.8000E+01
     -2.029  0.0000E+00  0.8000E+01
     -1.987  0.0000E+00  0.8000E+01
     -1.946  0.0000E+00  0.8000E+01
     -1.904  0.0000E+00  0.8000E+01
     -1.863  0.0000E+00  0.8000E+01
     -1.821  0.0000E+00  0.8000E+01
     -1.780  0.0000E+00  0.8000E+01
     -1.738  0.0000E+00  0.8000E+01
     -1.696  0.0000E+00  0.8000E+01
     -1.655  0.0000E+00  0.8000E+01
     -1.613  0.0000E+00  0.8000E+01
     -1.572  0.0000E+00  0.8000E+01
     -1.530  0.0000E+00  0.8000E+01
     -1.489  0.0000E+00  0.8000E+01
     -1.447  0.0000E+00  0.8000E+01
     -1.406  0.0000E+00  0.8000E+01
     -1.364  0.0000E+00  0.8000E+01
     -1.322  0.0000E+00  0.8000E+01
     -1.281  0.0000E+00  0.8000E+01
     -1.239  0.0000E+00  0.8000E+01
     -1.198  0.0000E+00  0.8000E+01
     -1.156  0.0000E+00  0.8000E+01
     -1.115  0.0000E+00  0.8000E+01
     -1.073  0.0000E+00  0.8000E+01
     -1.031  0.0000E+00  0.8000E+01
     -0.990  0.0000E+00  0.8000E+01
     -0.948  0.0000E+00  0.8000E+01
     -0.907  0.0000E+00  0.8000E+01
     -0.865  0.0000E+00  0.8000E+01
     -0.824  0.0000E+00  0.8000E+01
     -0.782  0.0000E+00  0.8000E+01
     -0.741  0.0000E+00  0.8000E+01
     -0.699  0.0000E+00  0.8000E+01
     -0.657  0.0000E+00  0.8000E+01
     -0.616  0.0000E+00  0.8000E+01
     -0.574  0.0000E+00  0.8000E+01
     -0.533  0.0000E+00  0.8000E+01
     -0.491  0.0000E+00  0.8000E+01
     -0.450  0.0000E+00  0.8000E+01
     -0.408  0.0000E+00  0.8000E+01
     -0.366  0.0000E+00  0.8000E+01
     -0.325  0.0000E+00  0.8000E+01
     -0.283  0.0000E+00  0.8000E+01
     -0.242  0.0000E+00  0.8000E+01
     -0.200  0.0000E+00  0.8000E+01
     -0.159  0.0000E+00  0.8000E+01
     -0.117  0.0000E+00  0.8000E+01
     -0.076  0.0000E+00  0.8000E+01
     -0.034  0.0000E+00  0.8000E+01
      0.008  0.0000E+00  0.8000E+01
      0.049  0.0000E+00  0.8000E+01
      0.091  0.0000E+00  0.8000E+01
      0.132  0.0000E+00  0.8000E+01
      0.174  0.0000E+00  0.8000E+01
      0.215  0.1675E-01  0.8000E+01
      0.257  0.1372E+01  0.8245E+01
      0.299  0.1753E+01  0.8310E+01
      0.340  0.2133E+01  0.8391E+01
      0.382  0.2513E+01  0.8487E+01
      0.423  0.2891E+01  0.8599E+01
      0.465  0.3269E+01  0.8727E+01
      0.506  0.3647E+01  0.8871E+01
      0.548  0.4023E+01  0.9031E+01
      0.589  0.4399E+01  0.9206E+01
      0.631  0.4774E+01  0.9396E+01
      0.673  0.5149E+01  0.9602E+01
      0.714  0.5585E+01  0.9825E+01
      0.756  0.5914E+01  0.1006E+02
      0.797  0.6046E+01  0.1031E+02
      0.839  0.5981E+01  0.1056E+02
      0.880  0.5719E+01  0.1081E+02
      0.922  0.5260E+01  0.1104E+02
      0.964  0.1943E+01  0.1118E+02
      1.005  0.1962E+01  0.1126E+02
      1.047  0.1979E+01  0.1134E+02
      1.088  0.1995E+01  0.1143E+02
      1.130  0.2010E+01  0.1151E+02
      1.171  0.2023E+01  0.1159E+02
      1.213  0.2035E+01  0.1168E+02
      1.254  0.2045E+01  0.1176E+02
      1.296  0.2055E+01  0.1185E+02
      1.338  0.2062E+01  0.1193E+02
      1.379  0.2069E+01  0.1202E+02
      1.421  0.2074E+01  0.1211E+02
      1.462  0.2078E+01  0.1219E+02
      1.504  0.2081E+01  0.1228E+02
      1.545  0.2082E+01  0.1237E+02
      1.587  0.2082E+01  0.1245E+02
      1.629  0.2080E+01  0.1254E+02
      1.670  0.2078E+01  0.1263E+02
      1.712  0.2074E+01  0.1271E+02
      1.753  0.2068E+01  0.1280E+02
      1.795  0.2061E+01  0.1288E+02
      1.836  0.2886E+01  0.1306E+02
      1.878  0.2977E+01  0.1318E+02
      1.919  0.3069E+01  0.1331E+02
      1.961  0.3164E+01  0.1344E+02
      2.003  0.3260E+01  0.1357E+02
      2.044  0.2532E+01  0.1369E+02
      2.086  0.2636E+01  0.1379E+02
      2.127  0.2738E+01  0.1390E+02
      2.169  0.2840E+01  0.1402E+02
      2.210  0.2941E+01  0.1414E+02
      2.252  0.3040E+01  0.1426E+02
      2.294  0.3139E+01  0.1439E+02
      2.335  0.3236E+01  0.1453E+02
      2.377  0.3332E+01  0.1466E+02
      2.418  0.2118E+01  0.1476E+02
      2.460  0.2045E+01  0.1484E+02
      2.501  0.1967E+01  0.1493E+02
      2.543  0.1882E+01  0.1501E+02
      2.585  0.1792E+01  0.1508E+02
      2.626  0.1696E+01  0.1516E+02
      2.668  0.1594E+01  0.1523E+02
      2.709  0.1486E+01  0.1529E+02
      2.751  0.1372E+01  0.1535E+02
      2.792  0.1252E+01  0.1540E+02
      2.834  0.1126E+01  0.1545E+02
      2.875  0.9945E+00  0.1550E+02
      2.917  0.9029E+00  0.1554E+02
      2.959  0.8662E+00  0.1557E+02
      3.000  0.8280E+00  0.1561E+02
      3.042  0.7884E+00  0.1564E+02
      3.083  0.7474E+00  0.1567E+02
      3.125  0.7049E+00  0.1570E+02
      3.166  0.6609E+00  0.1573E+02
      3.208  0.6155E+00  0.1576E+02
      3.250  0.5687E+00  0.1578E+02
      3.291  0.5203E+00  0.1581E+02
      3.333  0.4706E+00  0.1583E+02
      3.374  0.4194E+00  0.1584E+02
      3.416  0.3667E+00  0.1586E+02
      3.457  0.3126E+00  0.1588E+02
      3.499  0.3323E+00  0.1589E+02
      3.540  0.7688E+00  0.1591E+02
      3.582  0.1153E+01  0.1595E+02
      3.624  0.1751E+01  0.1601E+02
      3.665  0.3265E+01  0.1611E+02
      3.707  0.4526E+01  0.1627E+02
      3.748  0.5535E+01  0.1648E+02
      3.790  0.6292E+01  0.1673E+02
      3.831  0.6798E+01  0.1700E+02
      3.873  0.7050E+01  0.1729E+02
      3.915  0.5690E+01  0.1755E+02
      3.956  0.5691E+01  0.1778E+02
      3.998  0.5654E+01  0.1802E+02
      4.039  0.5579E+01  0.1825E+02
      4.081  0.5206E+01  0.1848E+02
      4.122  0.5031E+01  0.1869E+02
      4.164  0.4857E+01  0.1889E+02
      4.205  0.4683E+01  0.1909E+02
      4.247  0.4511E+01  0.1928E+02
      4.289  0.4338E+01  0.1947E+02
      4.330  0.4166E+01  0.1964E+02
      4.372  0.3995E+01  0.1981E+02
      4.413  0.3824E+01  0.1998E+02
      4.455  0.3654E+01  0.2013E+02
      4.496  0.3485E+01  0.2028E+02
      4.538  0.3316E+01  0.2042E+02
      4.580  0.3148E+01  0.2056E+02
      4.621  0.2980E+01  0.2068E+02
      4.663  0.2813E+01  0.2080E+02
      4.704  0.2646E+01  0.2092E+02
      4.746  0.2480E+01  0.2102E+02
      4.787  0.2314E+01  0.2112E+02
      4.829  0.2161E+01  0.2122E+02
      4.870  0.2032E+01  0.2130E+02
      4.912  0.1928E+01  0.2138E+02
      4.954  0.1849E+01  0.2146E+02
      4.995  0.1795E+01  0.2154E+02
      5.037  0.1766E+01  0.2161E+02
      5.078  0.1762E+01  0.2169E+02
      5.120  0.1783E+01  0.2176E+02
      5.161  0.1829E+01  0.2183E+02
      5.203  0.8584E+00  0.2212E+02
      5.245  0.1040E+01  0.2216E+02
      5.286  0.1238E+01  0.2220E+02
      5.328  0.1454E+01  0.2226E+02
      5.369  0.2090E+01  0.2233E+02
      5.411  0.5033E+01  0.2248E+02
      5.452  0.7103E+01  0.2273E+02
      5.494  0.8301E+01  0.2306E+02
      5.535  0.7340E+01  0.2341E+02
      5.577  0.8204E+01  0.2374E+02
      5.619  0.7985E+01  0.2408E+02
      5.660  0.7754E+01  0.2440E+02
      5.702  0.7511E+01  0.2472E+02
      5.743  0.7257E+01  0.2503E+02
      5.785  0.6991E+01  0.2532E+02
      5.826  0.7856E+01  0.2565E+02
      5.868  0.7621E+01  0.2597E+02
      5.910  0.7370E+01  0.2628E+02
      5.951  0.7105E+01  0.2658E+02
      5.993  0.6825E+01  0.2687E+02
      6.034  0.6529E+01  0.2715E+02
      6.076  0.6218E+01  0.2741E+02
      6.117  0.5893E+01  0.2766E+02
      6.159  0.5274E+01  0.2790E+02
      6.200  0.4126E+01  0.2809E+02
      6.242  0.1876E+01  0.2841E+02
      6.284  0.1881E+01  0.2849E+02
      6.325  0.1884E+01  0.2857E+02
      6.367  0.1883E+01  0.2865E+02
      6.408  0.1879E+01  0.2873E+02
      6.450  0.1872E+01  0.2880E+02
      6.491  0.1863E+01  0.2888E+02
      6.533  0.1850E+01  0.2896E+02
      6.575  0.1835E+01  0.2904E+02
      6.616  0.1817E+01  0.2911E+02
      6.658  0.1795E+01  0.2919E+02
      6.699  0.1771E+01  0.2926E+02
      6.741  0.1744E+01  0.2933E+02
      6.782  0.1714E+01  0.2941E+02
      6.824  0.1681E+01  0.2948E+02
      6.865  0.1725E+01  0.2955E+02
      6.907  0.1930E+01  0.2962E+02
      6.949  0.2141E+01  0.2971E+02
      6.990  0.2358E+01  0.2980E+02
      7.032  0.2582E+01  0.2990E+02
      7.073  0.2812E+01  0.3002E+02
      7.115  0.3649E+01  0.3029E+02
      7.156  0.3758E+01  0.3044E+02
      7.198  0.3832E+01  0.3060E+02
      7.240  0.3872E+01  0.3076E+02
      7.281  0.3876E+01  0.3092E+02
      7.323  0.3845E+01  0.3108E+02
      7.364  0.3779E+01  0.3124E+02
      7.406  0.3678E+01  0.3140E+02
      7.447  0.3541E+01  0.3155E+02
      7.489  0.3370E+01  0.3169E+02
      7.530  0.3164E+01  0.3183E+02
      7.572  0.3921E+00  0.3195E+02
      7.614  0.3105E+00  0.3197E+02
      7.655  0.2383E+00  0.3198E+02
      7.697  0.1757E+00  0.3199E+02
      7.738  0.1227E+00  0.3199E+02
      7.780  0.7909E-01  0.3200E+02
      7.821  0.4504E-01  0.3200E+02
      7.863  0.2052E-01  0.3200E+02
      7.905  0.5512E-02  0.3200E+02
      7.946  0.2757E-04  0.3200E+02
      7.988  0.0000E+00  0.3200E+02
      8.029  0.0000E+00  0.3200E+02
      8.071  0.0000E+00  0.3200E+02
      8.112  0.0000E+00  0.3200E+02
      8.154  0.0000E+00  0.3200E+02
      8.195  0.0000E+00  0.3200E+02
      8.237  0.0000E+00  0.3200E+02
      8.279  0.0000E+00  0.3200E+02
      8.320  0.0000E+00  0.3200E+02
      8.362  0.0000E+00  0.3200E+02
      8.403  0.0000E+00  0.3200E+02
      8.445  0.0000E+00  0.3200E+02
      8.486  0.0000E+00  0.3200E+02
      8.528  0.0000E+00  0.3200E+02
      8.570  0.0000E+00  0.3200E+02
      8.611  0.0000E+00  0.3200E+02
      8.653  0.0000E+00  0.3200E+02
      8.694  0.0000E+00  0.3200E+02
      8.736  0.0000E+00  0.3200E+02
      8.777  0.0000E+00  0.3200E+02
      8.819  0.0000E+00  0.3200E+02
      8.860  0.0000E+00  0.3200E+02
      8.902  0.0000E+00  0.3200E+02
      8.944  0.0000E+00  0.3200E+02
      8.985  0.0000E+00  0.3200E+02
      9.027  0.0000E+00  0.3200E+02
      9.068  0.0000E+00  0.3200E+02
      9.110  0.0000E+00  0.3200E+02
      9.151  0.0000E+00  0.3200E+02
      9.193  0.0000E+00  0.3200E+02
      9.235  0.0000E+00  0.3200E+02
      9.276  0.0000E+00  0.3200E+02
      9.318  0.3059E-05  0.3200E+02
      9.359  0.4584E-03  0.3200E+02
      9.401  0.1687E-02  0.3200E+02
      9.442  0.3688E-02  0.3200E+02
      9.484  0.6463E-02  0.3200E+02
      9.525  0.1001E-01  0.3200E+02
      9.567  0.1433E-01  0.3200E+02
      9.609  0.1942E-01  0.3200E+02
      9.650  0.2529E-01  0.3200E+02
      9.692  0.3193E-01  0.3200E+02
      9.733  0.3934E-01  0.3201E+02
      9.775  0.4753E-01  0.3201E+02
      9.816  0.5649E-01  0.3201E+02
      9.858  0.6622E-01  0.3201E+02
      9.900  0.7673E-01  0.3201E+02
      9.941  0.8800E-01  0.3202E+02
      9.983  0.1001E+00  0.3202E+02
     10.024  0.1129E+00  0.3203E+02
     10.066  0.1265E+00  0.3203E+02
     10.107  0.1408E+00  0.3204E+02
     10.149  0.1560E+00  0.3204E+02
     10.191  0.1719E+00  0.3205E+02
     10.232  0.1886E+00  0.3206E+02
     10.274  0.2061E+00  0.3207E+02
     10.315  0.2243E+00  0.3207E+02
     10.357  0.2433E+00  0.3208E+02
     10.398  0.2631E+00  0.3210E+02
     10.440  0.2836E+00  0.3211E+02
     10.481  0.3050E+00  0.3212E+02
     10.523  0.3271E+00  0.3213E+02
     10.565  0.3499E+00  0.3215E+02
     10.606  0.3983E+00  0.3216E+02
     10.648  0.4497E+00  0.3218E+02
     10.689  0.5002E+00  0.3220E+02
     10.731  0.5496E+00  0.3222E+02
     10.772  0.5980E+00  0.3224E+02
     10.814  0.6453E+00  0.3227E+02
     10.856  0.6917E+00  0.3230E+02
     10.897  0.7370E+00  0.3233E+02
     10.939  0.7813E+00  0.3236E+02
     10.980  0.8246E+00  0.3239E+02
     11.022  0.8669E+00  0.3243E+02
     11.063  0.9081E+00  0.3246E+02
     11.105  0.9483E+00  0.3250E+02
     11.146  0.9875E+00  0.3254E+02
     11.188  0.1026E+01  0.3259E+02
     11.230  0.1063E+01  0.3263E+02
     11.271  0.1099E+01  0.3267E+02
     11.313  0.1134E+01  0.3272E+02
     11.354  0.1168E+01  0.3277E+02
     11.396  0.1201E+01  0.3282E+02
     11.437  0.1233E+01  0.3287E+02
     11.479  0.1264E+01  0.3292E+02
     11.521  0.1294E+01  0.3297E+02
     11.562  0.1323E+01  0.3303E+02
     11.604  0.1351E+01  0.3308E+02
     11.645  0.1378E+01  0.3314E+02
     11.687  0.1404E+01  0.3320E+02
     11.728  0.1429E+01  0.3326E+02
     11.770  0.1935E+01  0.3333E+02
     11.811  0.1891E+01  0.3341E+02
     11.853  0.1849E+01  0.3348E+02
     11.895  0.1807E+01  0.3356E+02
     11.936  0.1829E+01  0.3364E+02
     11.978  0.1995E+01  0.3371E+02
     12.019  0.2158E+01  0.3380E+02
     12.061  0.2317E+01  0.3389E+02
     12.102  0.2473E+01  0.3399E+02
     12.144  0.2626E+01  0.3410E+02
     12.186  0.2775E+01  0.3421E+02
     12.227  0.2921E+01  0.3433E+02
     12.269  0.3065E+01  0.3445E+02
     12.310  0.3207E+01  0.3458E+02
     12.352  0.3347E+01  0.3472E+02
     12.393  0.3486E+01  0.3486E+02
     12.435  0.3624E+01  0.3501E+02
     12.476  0.3760E+01  0.3516E+02
     12.518  0.3894E+01  0.3532E+02
     12.560  0.4026E+01  0.3549E+02
     12.601  0.4157E+01  0.3566E+02
     12.643  0.4287E+01  0.3583E+02
     12.684  0.4415E+01  0.3601E+02
     12.726  0.4541E+01  0.3620E+02
     12.767  0.1906E+02  0.3697E+02
     12.809  0.2358E+02  0.3785E+02
     12.851  0.2105E+00  0.3804E+02
     12.892  0.2390E+00  0.3805E+02
     12.934  0.2693E+00  0.3806E+02
     12.975  0.3014E+00  0.3808E+02
     13.017  0.3353E+00  0.3809E+02
     13.058  0.3710E+00  0.3810E+02
     13.100  0.4086E+00  0.3812E+02
     13.141  0.4894E+00  0.3814E+02
     13.183  0.5739E+00  0.3816E+02
     13.225  0.6579E+00  0.3819E+02
     13.266  0.7414E+00  0.3822E+02
     13.308  0.8243E+00  0.3825E+02
     13.349  0.9068E+00  0.3828E+02
     13.391  0.9887E+00  0.3832E+02
     13.432  0.1074E+01  0.3837E+02
     13.474  0.1161E+01  0.3841E+02
     13.516  0.1542E+01  0.3854E+02
     13.557  0.1569E+01  0.3861E+02
     13.599  0.1595E+01  0.3867E+02
     13.640  0.1620E+01  0.3874E+02
     13.682  0.1644E+01  0.3881E+02
     13.723  0.1667E+01  0.3888E+02
     13.765  0.1689E+01  0.3895E+02
     13.806  0.1710E+01  0.3902E+02
     13.848  0.1729E+01  0.3909E+02
     13.890  0.1748E+01  0.3916E+02
     13.931  0.1765E+01  0.3923E+02
     13.973  0.1782E+01  0.3931E+02
     14.014  0.1797E+01  0.3938E+02
     14.056  0.1812E+01  0.3946E+02
     14.097  0.1828E+01  0.3953E+02
     14.139  0.1845E+01  0.3961E+02
     14.181  0.1862E+01  0.3969E+02
     14.222  0.1880E+01  0.3976E+02
     14.264  0.1899E+01  0.3984E+02
     14.305  0.1918E+01  0.3992E+02
     14.347  0.1937E+01  0.4000E+02
     14.388  0.1957E+01  0.4008E+02
     14.430  0.1978E+01  0.4016E+02
     14.471  0.1999E+01  0.4025E+02
     14.513  0.2021E+01  0.4033E+02
     14.555  0.2044E+01  0.4041E+02
     14.596  0.2067E+01  0.4050E+02
     14.638  0.2090E+01  0.4059E+02
     14.679  0.2114E+01  0.4067E+02
     14.721  0.2139E+01  0.4076E+02
     14.762  0.2165E+01  0.4085E+02
     14.804  0.2191E+01  0.4094E+02
     14.846  0.2217E+01  0.4103E+02
     14.887  0.2244E+01  0.4113E+02
     14.929  0.1409E+01  0.4118E+02
     14.970  0.1597E+01  0.4125E+02
     15.012  0.2004E+01  0.4132E+02
     15.053  0.2400E+01  0.4141E+02
     15.095  0.2783E+01  0.4152E+02
     15.136  0.3155E+01  0.4164E+02
     15.178  0.4216E+01  0.4180E+02
     15.220  0.4780E+01  0.4198E+02
     15.261  0.5323E+01  0.4219E+02
     15.303  0.5845E+01  0.4243E+02
     15.344  0.6347E+01  0.4268E+02
     15.386  0.6828E+01  0.4295E+02
     15.427  0.1338E+02  0.4346E+02
     15.469  0.1225E+02  0.4399E+02
     15.511  0.1114E+02  0.4448E+02
     15.552  0.1352E+02  0.4515E+02
     15.594  0.1484E+02  0.4574E+02
     15.635  0.1579E+02  0.4646E+02
     15.677  0.5083E+01  0.4711E+02
     15.718  0.5243E+01  0.4732E+02
     15.760  0.5370E+01  0.4754E+02
     15.801  0.5464E+01  0.4777E+02
     15.843  0.5525E+01  0.4800E+02
     15.885  0.5553E+01  0.4823E+02
     15.926  0.1509E+01  0.4841E+02
     15.968  0.1626E+01  0.4848E+02
     16.009  0.1745E+01  0.4855E+02
     16.051  0.1866E+01  0.4862E+02
     16.092  0.1989E+01  0.4870E+02
     16.134  0.2112E+01  0.4879E+02
     16.176  0.2238E+01  0.4888E+02
     16.217  0.2365E+01  0.4897E+02
     16.259  0.2494E+01  0.4908E+02
     16.300  0.2624E+01  0.4918E+02
     16.342  0.2756E+01  0.4929E+02
     16.383  0.2890E+01  0.4941E+02
     16.425  0.6645E+01  0.4959E+02
     16.466  0.6911E+01  0.4988E+02
     16.508  0.7048E+01  0.5017E+02
     16.550  0.7057E+01  0.5046E+02
     16.591  0.6938E+01  0.5075E+02
     16.633  0.6691E+01  0.5103E+02
     16.674  0.6316E+01  0.5131E+02
     16.716  0.5812E+01  0.5156E+02
     16.757  0.1686E+02  0.5231E+02
     16.799  0.5087E+01  0.5290E+02
     16.841  0.4160E+01  0.5309E+02
     16.882  0.3549E+01  0.5325E+02
     16.924  0.3860E+01  0.5340E+02
     16.965  0.4180E+01  0.5357E+02
     17.007  0.4509E+01  0.5375E+02
     17.048  0.1823E+01  0.5386E+02
     17.090  0.1796E+01  0.5393E+02
     17.132  0.1769E+01  0.5401E+02
     17.173  0.1741E+01  0.5408E+02
     17.215  0.1712E+01  0.5415E+02
     17.256  0.1682E+01  0.5422E+02
     17.298  0.1652E+01  0.5429E+02
     17.339  0.1622E+01  0.5436E+02
     17.381  0.1590E+01  0.5442E+02
     17.422  0.1558E+01  0.5449E+02
     17.464  0.1525E+01  0.5455E+02
     17.506  0.1492E+01  0.5462E+02
     17.547  0.1457E+01  0.5468E+02
     17.589  0.1422E+01  0.5474E+02
     17.630  0.1387E+01  0.5480E+02
     17.672  0.1350E+01  0.5485E+02
     17.713  0.1313E+01  0.5491E+02
     17.755  0.1276E+01  0.5496E+02
     17.797  0.1814E+01  0.5511E+02
     17.838  0.1850E+01  0.5518E+02
     17.880  0.1887E+01  0.5526E+02
     17.921  0.1926E+01  0.5534E+02
     17.963  0.1968E+01  0.5542E+02
     18.004  0.2011E+01  0.5550E+02
     18.046  0.2057E+01  0.5559E+02
     18.087  0.2104E+01  0.5567E+02
     18.129  0.2154E+01  0.5576E+02
     18.171  0.2205E+01  0.5585E+02
     18.212  0.2258E+01  0.5595E+02
     18.254  0.2314E+01  0.5604E+02
     18.295  0.2371E+01  0.5614E+02
     18.337  0.2431E+01  0.5624E+02
     18.378  0.2492E+01  0.5634E+02
     18.420  0.2555E+01  0.5645E+02
     18.462  0.2621E+01  0.5655E+02
     18.503  0.4315E+01  0.5695E+02
     18.545  0.4541E+01  0.5713E+02
     18.586  0.4774E+01  0.5733E+02
     18.628  0.9384E+01  0.5756E+02
     18.669  0.7904E+01  0.5794E+02
     18.711  0.2986E+01  0.5816E+02
     18.752  0.3153E+01  0.5829E+02
     18.794  0.3324E+01  0.5842E+02
     18.836  0.3501E+01  0.5857E+02
     18.877  0.3683E+01  0.5871E+02
     18.919  0.3870E+01  0.5887E+02
     18.960  0.4062E+01  0.5904E+02
     19.002  0.4259E+01  0.5921E+02
     19.043  0.4460E+01  0.5939E+02
     19.085  0.4667E+01  0.5958E+02
     19.127  0.4879E+01  0.5978E+02
     19.168  0.5095E+01  0.5999E+02
     19.210  0.5317E+01  0.6020E+02
     19.251  0.5543E+01  0.6043E+02
     19.293  0.5279E+01  0.6065E+02
     19.334  0.5386E+01  0.6088E+02
     19.376  0.5157E+01  0.6109E+02
     19.417  0.5133E+01  0.6131E+02
     19.459  0.5093E+01  0.6152E+02
     19.501  0.6261E+01  0.6174E+02
     19.542  0.6203E+01  0.6200E+02
     19.584  0.6090E+01  0.6225E+02
     19.625  0.5923E+01  0.6250E+02
     19.667  0.5701E+01  0.6274E+02
     19.708  0.5424E+01  0.6298E+02
     19.750  0.5093E+01  0.6319E+02
     19.792  0.4706E+01  0.6340E+02
     19.833  0.4265E+01  0.6359E+02
     19.875  0.3769E+01  0.6375E+02
     19.916  0.3218E+01  0.6390E+02
     19.958  0.2623E+01  0.6402E+02
     19.999  0.2259E+01  0.6412E+02
     20.041  0.2023E+01  0.6421E+02
     20.082  0.1960E+01  0.6429E+02
     20.124  0.1897E+01  0.6437E+02
     20.166  0.1835E+01  0.6445E+02
     20.207  0.1774E+01  0.6452E+02
     20.249  0.1715E+01  0.6460E+02
     20.290  0.1656E+01  0.6467E+02
     20.332  0.1598E+01  0.6473E+02
     20.373  0.1542E+01  0.6480E+02
     20.415  0.1486E+01  0.6486E+02
     20.457  0.1432E+01  0.6492E+02
     20.498  0.1378E+01  0.6498E+02
     20.540  0.1326E+01  0.6504E+02
     20.581  0.1275E+01  0.6509E+02
     20.623  0.1224E+01  0.6514E+02
     20.664  0.1175E+01  0.6519E+02
     20.706  0.6331E+01  0.6530E+02
     20.747  0.6648E+01  0.6557E+02
     20.789  0.4812E+01  0.6582E+02
     20.831  0.3192E+01  0.6597E+02
     20.872  0.3074E+01  0.6610E+02
     20.914  0.2956E+01  0.6622E+02
     20.955  0.2840E+01  0.6635E+02
     20.997  0.2725E+01  0.6646E+02
     21.038  0.2611E+01  0.6657E+02
     21.080  0.2499E+01  0.6668E+02
     21.122  0.2388E+01  0.6678E+02
     21.163  0.5756E+01  0.6699E+02
     21.205  0.5840E+01  0.6723E+02
     21.246  0.5910E+01  0.6748E+02
     21.288  0.5966E+01  0.6773E+02
     21.329  0.6006E+01  0.6797E+02
     21.371  0.6033E+01  0.6823E+02
     21.412  0.6045E+01  0.6848E+02
     21.454  0.6042E+01  0.6873E+02
     21.496  0.6025E+01  0.6898E+02
     21.537  0.5994E+01  0.6923E+02
     21.579  0.5948E+01  0.6948E+02
     21.620  0.5887E+01  0.6972E+02
     21.662  0.5812E+01  0.6997E+02
     21.703  0.5722E+01  0.7021E+02
     21.745  0.5618E+01  0.7044E+02
     21.787  0.4223E+01  0.7089E+02
     21.828  0.3886E+01  0.7106E+02
     21.870  0.3539E+01  0.7122E+02
     21.911  0.3180E+01  0.7136E+02
     21.953  0.2811E+01  0.7148E+02
     21.994  0.2416E+01  0.7159E+02
     22.036  0.2014E+01  0.7168E+02
     22.077  0.1613E+01  0.7176E+02
     22.119  0.1214E+01  0.7182E+02
     22.161  0.2979E+01  0.7207E+02
     22.202  0.3408E+01  0.7221E+02
     22.244  0.3892E+01  0.7236E+02
     22.285  0.4432E+01  0.7253E+02
     22.327  0.5027E+01  0.7273E+02
     22.368  0.2178E+01  0.7291E+02
     22.410  0.2134E+01  0.7300E+02
     22.452  0.3623E+01  0.7313E+02
     22.493  0.3562E+01  0.7328E+02
     22.535  0.3496E+01  0.7342E+02
     22.576  0.3424E+01  0.7357E+02
     22.618  0.3343E+01  0.7371E+02
     22.659  0.3252E+01  0.7385E+02
     22.701  0.3150E+01  0.7398E+02
     22.742  0.3038E+01  0.7411E+02
     22.784  0.2915E+01  0.7423E+02
     22.826  0.2782E+01  0.7435E+02
     22.867  0.2639E+01  0.7446E+02
     22.909  0.2486E+01  0.7457E+02
     22.950  0.2322E+01  0.7467E+02
     22.992  0.2147E+01  0.7476E+02
     23.033  0.1963E+01  0.7485E+02
     23.075  0.1078E+01  0.7499E+02
     23.117  0.8946E+00  0.7503E+02
     23.158  0.7019E+00  0.7506E+02
     23.200  0.6255E+00  0.7509E+02
     23.241  0.6237E+00  0.7511E+02
     23.283  0.6215E+00  0.7514E+02
     23.324  0.6190E+00  0.7517E+02
     23.366  0.6160E+00  0.7519E+02
     23.407  0.6128E+00  0.7522E+02
     23.449  0.6091E+00  0.7524E+02
     23.491  0.6050E+00  0.7527E+02
     23.532  0.6006E+00  0.7529E+02
     23.574  0.5958E+00  0.7532E+02
     23.615  0.5906E+00  0.7534E+02
     23.657  0.5851E+00  0.7537E+02
     23.698  0.5792E+00  0.7539E+02
     23.740  0.5729E+00  0.7542E+02
     23.782  0.5662E+00  0.7544E+02
     23.823  0.5591E+00  0.7546E+02
     23.865  0.5517E+00  0.7549E+02
     23.906  0.5439E+00  0.7551E+02
     23.948  0.5357E+00  0.7553E+02
     23.989  0.5272E+00  0.7555E+02
     24.031  0.5183E+00  0.7557E+02
     24.072  0.5090E+00  0.7560E+02
     24.114  0.4993E+00  0.7562E+02
     24.156  0.4892E+00  0.7564E+02
     24.197  0.4788E+00  0.7566E+02
     24.239  0.4681E+00  0.7568E+02
     24.280  0.4570E+00  0.7570E+02
     24.322  0.4456E+00  0.7572E+02
     24.363  0.4339E+00  0.7573E+02
     24.405  0.4220E+00  0.7575E+02
     24.447  0.4097E+00  0.7577E+02
     24.488  0.3971E+00  0.7579E+02
     24.530  0.3842E+00  0.7580E+02
     24.571  0.3710E+00  0.7582E+02
     24.613  0.4852E+01  0.7590E+02
     24.654  0.5045E+01  0.7610E+02
     24.696  0.5230E+01  0.7632E+02
     24.738  0.5408E+01  0.7654E+02
     24.779  0.5578E+01  0.7677E+02
     24.821  0.5740E+01  0.7700E+02
     24.862  0.5894E+01  0.7724E+02
     24.904  0.6040E+01  0.7749E+02
     24.945  0.6179E+01  0.7774E+02