    8    8    1    1
  0.1050029E+02  0.4379560E-09  0.4379560E-09  0.4379560E-09  0.5000000E-15
  1.000000000000000E-004
  CAR 
 unknown system                          
     32      4     48
 
  0.0000000E+00  0.0000000E+00  0.0000000E+00  0.3703704E-01
    1       -7.344037
    2       -2.396232
    3       -2.396232
    4       -2.396232
    5        0.195787
    6        0.195787
    7        0.195787
    8        4.789409
    9        4.789409
   10        4.789409
   11        4.789409
   12        4.789409
   13        4.789409
   14        7.949274
   15        7.949274
   16        7.949274
   17        9.313988
   18        9.313988
   19        9.313988
   20       12.216439
   21       12.216439
   22       12.216439
   23       14.002604
   24       15.148656
   25       15.148656
   26       15.148656
   27       21.823428
   28       21.823428
   29       21.823428
   30       21.823428
   31       21.823428
   32       21.823428
   33       22.367223
   34       22.367223
   35       22.564370
   36       22.564370
   37       22.564370
   38       24.196271
   39       25.106792
   40       25.106792
   41       25.106792
   42       27.912985
   43       27.912985
   44       27.912985
   45       29.907031
   46       29.907033
   47       29.907035
   48       29.907049
 
  0.3333333E+00 -0.1232595E-31  0.0000000E+00  0.2222222E+00
    1       -6.633072
    2       -4.603336
    3       -2.232613
    4       -2.232613
    5        0.690547
    6        0.690547
    7        2.898542
    8        3.492897
    9        3.492897
   10        3.615378
   11        3.615378
   12        5.363976
   13        5.363976
   14        6.145028
   15        6.851507
   16        6.851507
   17       10.570419
   18       11.923903
   19       11.923903
   20       13.103622
   21       13.409746
   22       14.954977
   23       14.954977
   24       15.156917
   25       16.871615
   26       16.871615
   27       18.652405
   28       18.652405
   29       18.704971
   30       19.956130
   31       19.956130
   32       20.020947
   33       20.020947
   34       20.808004
   35       21.966586
   36       21.966586
   37       23.173850
   38       25.494613
   39       25.525244
   40       25.525244
   41       26.546754
   42       26.546754
   43       26.767642
   44       28.044432
   45       28.841444
   46       28.841444
   47       29.990085
   48       30.177256
 
  0.3333333E+00  0.3333333E+00  0.0000000E+00  0.4444444E+00
    1       -5.946805
    2       -4.038413
    3       -4.038413
    4       -2.779238
    5        0.942175
    6        2.017419
    7        2.017419
    8        2.382103
    9        3.885658
   10        3.885658
   11        4.055052
   12        5.534726
   13        5.551299
   14        5.551299
   15        5.792706
   16        7.570908
   17       11.747587
   18       12.816611
   19       12.816611
   20       14.887650
   21       15.395725
   22       15.607696
   23       15.607696
   24       15.915396
   25       16.408429
   26       16.408429
   27       16.785090
   28       17.018540
   29       18.619550
   30       19.274699
   31       19.351503
   32       19.495429
   33       19.495429
   34       20.694733
   35       21.128485
   36       21.128485
   37       22.355589
   38       22.422094
   39       24.598403
   40       24.598403
   41       26.452768
   42       26.636157
   43       28.348263
   44       28.348263
   45       29.288928
   46       29.288928
   47       29.450135
   48       29.975926
 
  0.3333333E+00  0.3333333E+00  0.3333333E+00  0.2962963E+00
    1       -5.304660
    2       -3.688311
    3       -3.688311
    4       -3.688311
    5        0.240479
    6        0.240479
    7        0.240479
    8        1.815581
    9        5.187918
   10        5.187918
   11        5.187918
   12        6.209637
   13        6.209637
   14        6.209637
   15        7.107278
   16        7.107278
   17       12.739835
   18       12.739835
   19       12.739835
   20       13.497564
   21       15.513350
   22       15.513350
   23       15.660508
   24       15.660508
   25       15.660508
   26       16.725613
   27       16.725613
   28       16.725613
   29       17.763155
   30       18.462379
   31       18.462379
   32       18.462379
   33       21.786506
   34       21.786506
   35       21.786506
   36       22.123135
   37       22.123135
   38       23.058061
   39       25.111983
   40       25.111983
   41       25.111983
   42       25.994342
   43       25.994342
   44       25.994342
   45       28.905026
   46       28.905026
   47       28.905027
   48       29.473331
