PROCAR lm decomposed
# of k-points:    4         # of bands:  48         # of ions:   8

 k-point    1 :    0.00000000 0.00000000 0.00000000     weight = 0.03703704

band   1 # energy   -7.34403736 # occ.  2.00000000
 
ion      s     py     pz     px    dxy    dyz    dz2    dxz    dx2    tot
  1  0.061  0.000  0.000  0.000  0.000  0.000  0.000  0.000  0.000  0.061
  2  0.061  0.000  0.000  0.000  0.000  0.000  0.000  0.000  0.000  0.061
  3  0.061  0.000  0.000  0.000  0.000  0.000  0.000  0.000  0.000  0.061
  4  0.061  0.000  0.000  0.000  0.000  0.000  0.000  0.000  0.000  0.061
  5  0.063  0.000  0.000  0.000  0.000  0.000  0.000  0.000  0.000  0.063
  6  0.063  0.000  0.000  0.000  0.000  0.000  0.000  0.000  0.000  0.063
  7  0.063  0.000  0.000  0.000  0.000  0.000  0.000  0.000  0.000  0.063
  8  0.063  0.000  0.000  0.000  0.000  0.000  0.000  0.000  0.000  0.063
tot  0.497  0.000  0.000  0.000  0.000  0.000  0.000  0.000  0.000  0.497
 
band   2 # energy   -2.39623232 # occ.  2.00000000
 
ion      s     py     pz     px    dxy    dyz    dz2    dxz    dx2    tot
  1  0.000  0.027  0.001  0.005  0.000  0.000  0.000  0.000  0.000  0.033
  2  0.000  0.027  0.001  0.005  0.000  0.000  0.000  0.000  0.000  0.033
  3  0.000  0.027  0.001  0.005  0.000  0.000  0.000  0.000  0.000  0.033
  4  0.000  0.027  0.001  0.005  0.000  0.000  0.000  0.000  0.000  0.033
  5  0.181  0.000  0.000  0.000  0.000  0.000  0.000  0.000  0.000  0.181
  6  0.065  0.000  0.000  0.000  0.000  0.000  0.000  0.000  0.000  0.065
  7  0.067  0.000  0.000  0.000  0.000  0.000  0.000  0.000  0.000  0.067
  8  0.119  0.000  0.000  0.000  0.000  0.000  0.000  0.000  0.000  0.119
tot  0.432  0.106  0.004  0.022  0.000  0.000  0.000  0.000  0.000  0.565
 
band   3 # energy   -2.39623232 # occ.  2.00000000
 
ion      s     py     pz     px    dxy    dyz    dz2    dxz    dx2    tot
  1  0.000  0.003  0.009  0.021  0.000  0.000  0.000  0.000  0.000  0.033
  2  0.000  0.003  0.009  0.021  0.000  0.000  0.000  0.000  0.000  0.033
  3  0.000  0.003  0.009  0.021  0.000  0.000  0.000  0.000  0.000  0.033
  4  0.000  0.003  0.009  0.021  0.000  0.000  0.000  0.000  0.000  0.033
  5  0.028  0.000  0.000  0.000  0.000  0.000  0.000  0.000  0.000  0.028
  6  0.253  0.000  0.000  0.000  0.000  0.000  0.000  0.000  0.000  0.253
  7  0.036  0.000  0.000  0.000  0.000  0.000  0.000  0.000  0.000  0.036
  8  0.115  0.000  0.000  0.000  0.000  0.000  0.000  0.000  0.000  0.115
tot  0.432  0.011  0.037  0.085  0.000  0.000  0.000  0.000  0.000  0.565
 
band   4 # energy   -2.39623232 # occ.  2.00000000
 
ion      s     py     pz     px    dxy    dyz    dz2    dxz    dx2    tot
  1  0.000  0.004  0.023  0.007  0.000  0.000  0.000  0.000  0.000  0.033
  2  0.000  0.004  0.023  0.007  0.000  0.000  0.000  0.000  0.000  0.033
  3  0.000  0.004  0.023  0.007  0.000  0.000  0.000  0.000  0.000  0.033
  4  0.000  0.004  0.023  0.007  0.000  0.000  0.000  0.000  0.000  0.033
  5  0.115  0.000  0.000  0.000  0.000  0.000  0.000  0.000  0.000  0.115
  6  0.007  0.000  0.000  0.000  0.000  0.000  0.000  0.000  0.000  0.007
  7  0.221  0.000  0.000  0.000  0.000  0.000  0.000  0.000  0.000  0.221
  8  0.090  0.000  0.000  0.000  0.000  0.000  0.000  0.000  0.000  0.090
tot  0.432  0.015  0.091  0.026  0.000  0.000  0.000  0.000  0.000  0.565
 
band   5 # energy    0.19578701 # occ.  2.00000000
 
ion      s     py     pz     px    dxy    dyz    dz2    dxz    dx2    tot
  1  0.002  0.000  0.000  0.000  0.000  0.000  0.000  0.000  0.000  0.002
  2  0.049  0.000  0.000  0.000  0.000  0.000  0.000  0.000  0.000  0.049
  3  0.133  0.000  0.000  0.000  0.000  0.000  0.000  0.000  0.000  0.133
  4  0.164  0.000  0.000  0.000  0.000  0.000  0.000  0.000  0.000  0.164
  5  0.000  0.016  0.026  0.004  0.000  0.000  0.000  0.000  0.000  0.046
  6  0.000  0.016  0.026  0.004  0.000  0.000  0.000  0.000  0.000  0.046
  7  0.000  0.016  0.026  0.004  0.000  0.000  0.000  0.000  0.000  0.046
  8  0.000  0.016  0.026  0.004  0.000  0.000  0.000  0.000  0.000  0.046
tot  0.349  0.062  0.105  0.017  0.000  0.000  0.000  0.000  0.000  0.534
 
band   6 # energy    0.19578701 # occ.  2.00000000
 
ion      s     py     pz     px    dxy    dyz    dz2    dxz    dx2    tot
  1  0.078  0.000  0.000  0.000  0.000  0.000  0.000  0.000  0.000  0.078
  2  0.105  0.000  0.000  0.000  0.000  0.000  0.000  0.000  0.000  0.105
  3  0.126  0.000  0.000  0.000  0.000  0.000  0.000  0.000  0.000  0.126
  4  0.040  0.000  0.000  0.000  0.000  0.000  0.000  0.000  0.000  0.040
  5  0.000  0.002  0.010  0.035  0.000  0.000  0.000  0.000  0.000  0.046
  6  0.000  0.002  0.010  0.035  0.000  0.000  0.000  0.000  0.000  0.046
  7  0.000  0.002  0.010  0.035  0.000  0.000  0.000  0.000  0.000  0.046
  8  0.000  0.002  0.010  0.035  0.000  0.000  0.000  0.000  0.000  0.046
tot  0.349  0.008  0.038  0.138  0.000  0.000  0.000  0.000  0.000  0.534
 
band   7 # energy    0.19578701 # occ.  2.00000000
 
ion      s     py     pz     px    dxy    dyz    dz2    dxz    dx2    tot
  1  0.182  0.000  0.000  0.000  0.000  0.000  0.000  0.000  0.000  0.182
  2  0.108  0.000  0.000  0.000  0.000  0.000  0.000  0.000  0.000  0.108
  3  0.003  0.000  0.000  0.000  0.000  0.000  0.000  0.000  0.000  0.003
  4  0.057  0.000  0.000  0.000  0.000  0.000  0.000  0.000  0.000  0.057
  5  0.000  0.029  0.010  0.007  0.000  0.000  0.000  0.000  0.000  0.046
  6  0.000  0.029  0.010  0.007  0.000  0.000  0.000  0.000  0.000  0.046
  7  0.000  0.029  0.010  0.007  0.000  0.000  0.000  0.000  0.000  0.046
  8  0.000  0.029  0.010  0.007  0.000  0.000  0.000  0.000  0.000  0.046
tot  0.349  0.114  0.041  0.029  0.000  0.000  0.000  0.000  0.000  0.534
 
band   8 # energy    4.78940919 # occ.  2.00000000
 
ion      s     py     pz     px    dxy    dyz    dz2    dxz    dx2    tot
  1  0.000  0.021  0.005  0.024  0.000  0.000  0.000  0.000  0.000  0.050
  2  0.000  0.037  0.022  0.024  0.000  0.000  0.000  0.000  0.000  0.082
  3  0.000  0.021  0.022  0.004  0.000  0.000  0.000  0.000  0.000  0.046
  4  0.000  0.037  0.005  0.004  0.000  0.000  0.000  0.000  0.000  0.045
  5  0.000  0.019  0.023  0.027  0.000  0.000  0.000  0.000  0.000  0.068
  6  0.000  0.004  0.076  0.027  0.000  0.000  0.000  0.000  0.000  0.107
  7  0.000  0.019  0.076  0.009  0.000  0.000  0.000  0.000  0.000  0.104
  8  0.000  0.004  0.023  0.009  0.000  0.000  0.000  0.000  0.000  0.036
tot  0.000  0.161  0.251  0.127  0.000  0.000  0.000  0.000  0.000  0.539
 
band   9 # energy    4.78940919 # occ.  2.00000000
 
ion      s     py     pz     px    dxy    dyz    dz2    dxz    dx2    tot
  1  0.000  0.052  0.011  0.009  0.000  0.000  0.000  0.000  0.000  0.073
  2  0.000  0.009  0.003  0.009  0.000  0.000  0.000  0.000  0.000  0.020
  3  0.000  0.052  0.003  0.028  0.000  0.000  0.000  0.000  0.000  0.083
  4  0.000  0.009  0.011  0.028  0.000  0.000  0.000  0.000  0.000  0.048
  5  0.000  0.011  0.058  0.045  0.000  0.000  0.000  0.000  0.000  0.113
  6  0.000  0.001  0.032  0.045  0.000  0.000  0.000  0.000  0.000  0.077
  7  0.000  0.011  0.032  0.012  0.000  0.000  0.000  0.000  0.000  0.055
  8  0.000  0.001  0.058  0.012  0.000  0.000  0.000  0.000  0.000  0.070
tot  0.000  0.145  0.208  0.185  0.000  0.000  0.000  0.000  0.000  0.539
 
band  10 # energy    4.78940919 # occ.  2.00000000
 
ion      s     py     pz     px    dxy    dyz    dz2    dxz    dx2    tot
  1  0.000  0.025  0.019  0.007  0.000  0.000  0.000  0.000  0.000  0.051
  2  0.000  0.043  0.015  0.007  0.000  0.000  0.000  0.000  0.000  0.065
  3  0.000  0.025  0.015  0.002  0.000  0.000  0.000  0.000  0.000  0.042
  4  0.000  0.043  0.019  0.002  0.000  0.000  0.000  0.000  0.000  0.065
  5  0.000  0.007  0.009  0.035  0.000  0.000  0.000  0.000  0.000  0.050
  6  0.000  0.001  0.010  0.035  0.000  0.000  0.000  0.000  0.000  0.046
  7  0.000  0.007  0.010  0.096  0.000  0.000  0.000  0.000  0.000  0.113
  8  0.000  0.001  0.009  0.096  0.000  0.000  0.000  0.000  0.000  0.106
tot  0.000  0.151  0.108  0.280  0.000  0.000  0.000  0.000  0.000  0.539
 
band  11 # energy    4.78940919 # occ.  2.00000000
 
ion      s     py     pz     px    dxy    dyz    dz2    dxz    dx2    tot
  1  0.000  0.003  0.032  0.041  0.000  0.000  0.000  0.000  0.000  0.076
  2  0.000  0.009  0.009  0.041  0.000  0.000  0.000  0.000  0.000  0.059
  3  0.000  0.003  0.009  0.017  0.000  0.000  0.000  0.000  0.000  0.029
  4  0.000  0.009  0.032  0.017  0.000  0.000  0.000  0.000  0.000  0.059
  5  0.000  0.068  0.041  0.028  0.000  0.000  0.000  0.000  0.000  0.136
  6  0.000  0.005  0.003  0.028  0.000  0.000  0.000  0.000  0.000  0.036
  7  0.000  0.068  0.003  0.013  0.000  0.000  0.000  0.000  0.000  0.084
  8  0.000  0.005  0.041  0.013  0.000  0.000  0.000  0.000  0.000  0.059
tot  0.000  0.170  0.171  0.198  0.000  0.000  0.000  0.000  0.000  0.539
 
band  12 # energy    4.78940919 # occ.  2.00000000
 
ion      s     py     pz     px    dxy    dyz    dz2    dxz    dx2    tot
  1  0.000  0.010  0.004  0.011  0.000  0.000  0.000  0.000  0.000  0.025
  2  0.000  0.008  0.026  0.011  0.000  0.000  0.000  0.000  0.000  0.045
  3  0.000  0.010  0.026  0.053  0.000  0.000  0.000  0.000  0.000  0.088
  4  0.000  0.008  0.004  0.053  0.000  0.000  0.000  0.000  0.000  0.065
  5  0.000  0.036  0.022  0.021  0.000  0.000  0.000  0.000  0.000  0.079
  6  0.000  0.017  0.035  0.021  0.000  0.000  0.000  0.000  0.000  0.073
  7  0.000  0.036  0.035  0.026  0.000  0.000  0.000  0.000  0.000  0.097
  8  0.000  0.017  0.022  0.026  0.000  0.000  0.000  0.000  0.000  0.066
tot  0.000  0.144  0.174  0.221  0.000  0.000  0.000  0.000  0.000  0.539
 
band  13 # energy    4.78940919 # occ.  2.00000000
 
ion      s     py     pz     px    dxy    dyz    dz2    dxz    dx2    tot
  1  0.000  0.001  0.039  0.021  0.000  0.000  0.000  0.000  0.000  0.061
  2  0.000  0.005  0.037  0.021  0.000  0.000  0.000  0.000  0.000  0.063
  3  0.000  0.001  0.037  0.009  0.000  0.000  0.000  0.000  0.000  0.047
  4  0.000  0.005  0.039  0.009  0.000  0.000  0.000  0.000  0.000  0.053
  5  0.000  0.018  0.005  0.002  0.000  0.000  0.000  0.000  0.000  0.026
  6  0.000  0.129  0.001  0.002  0.000  0.000  0.000  0.000  0.000  0.133
  7  0.000  0.018  0.001  0.001  0.000  0.000  0.000  0.000  0.000  0.021
  8  0.000  0.129  0.005  0.001  0.000  0.000  0.000  0.000  0.000  0.136
tot  0.000  0.307  0.166  0.066  0.000  0.000  0.000  0.000  0.000  0.539
 
band  14 # energy    7.94927365 # occ.  2.00000000
 
ion      s     py     pz     px    dxy    dyz    dz2    dxz    dx2    tot
  1  0.000  0.002  0.008  0.004  0.000  0.000  0.000  0.000  0.000  0.014
  2  0.000  0.002  0.008  0.004  0.000  0.000  0.000  0.000  0.000  0.014
  3  0.000  0.002  0.008  0.004  0.000  0.000  0.000  0.000  0.000  0.014
  4  0.000  0.002  0.008  0.004  0.000  0.000  0.000  0.000  0.000  0.014
  5  0.000  0.018  0.065  0.035  0.000  0.000  0.000  0.000  0.000  0.118
  6  0.000  0.018  0.065  0.035  0.000  0.000  0.000  0.000  0.000  0.118
  7  0.000  0.018  0.065  0.035  0.000  0.000  0.000  0.000  0.000  0.118
  8  0.000  0.018  0.065  0.035  0.000  0.000  0.000  0.000  0.000  0.118
tot  0.000  0.083  0.291  0.155  0.000  0.000  0.000  0.000  0.000  0.529
 
band  15 # energy    7.94927365 # occ.  2.00000000
 
ion      s     py     pz     px    dxy    dyz    dz2    dxz    dx2    tot
  1  0.000  0.008  0.005  0.001  0.000  0.000  0.000  0.000  0.000  0.014
  2  0.000  0.008  0.005  0.001  0.000  0.000  0.000  0.000  0.000  0.014
  3  0.000  0.008  0.005  0.001  0.000  0.000  0.000  0.000  0.000  0.014
  4  0.000  0.008  0.005  0.001  0.000  0.000  0.000  0.000  0.000  0.014
  5  0.000  0.070  0.041  0.008  0.000  0.000  0.000  0.000  0.000  0.118
  6  0.000  0.070  0.041  0.008  0.000  0.000  0.000  0.000  0.000  0.118
  7  0.000  0.070  0.041  0.008  0.000  0.000  0.000  0.000  0.000  0.118
  8  0.000  0.070  0.041  0.008  0.000  0.000  0.000  0.000  0.000  0.118
tot  0.000  0.312  0.183  0.034  0.000  0.000  0.000  0.000  0.000  0.529
 
band  16 # energy    7.94927365 # occ.  2.00000000
 
ion      s     py     pz     px    dxy    dyz    dz2    dxz    dx2    tot
  1  0.000  0.004  0.001  0.009  0.000  0.000  0.000  0.000  0.000  0.014
  2  0.000  0.004  0.001  0.009  0.000  0.000  0.000  0.000  0.000  0.014
  3  0.000  0.004  0.001  0.009  0.000  0.000  0.000  0.000  0.000  0.014
  4  0.000  0.004  0.001  0.009  0.000  0.000  0.000  0.000  0.000  0.014
  5  0.000  0.030  0.012  0.076  0.000  0.000  0.000  0.000  0.000  0.118
  6  0.000  0.030  0.012  0.076  0.000  0.000  0.000  0.000  0.000  0.118
  7  0.000  0.030  0.012  0.076  0.000  0.000  0.000  0.000  0.000  0.118
  8  0.000  0.030  0.012  0.076  0.000  0.000  0.000  0.000  0.000  0.118
tot  0.000  0.134  0.055  0.340  0.000  0.000  0.000  0.000  0.000  0.529
 
band  17 # energy    9.31398787 # occ.  0.00000000
 
ion      s     py     pz     px    dxy    dyz    dz2    dxz    dx2    tot
  1  0.000  0.022  0.001  0.002  0.000  0.000  0.000  0.000  0.000  0.025
  2  0.000  0.022  0.001  0.002  0.000  0.000  0.000  0.000  0.000  0.025
  3  0.000  0.022  0.001  0.002  0.000  0.000  0.000  0.000  0.000  0.025
  4  0.000  0.022  0.001  0.002  0.000  0.000  0.000  0.000  0.000  0.025
  5  0.015  0.000  0.000  0.000  0.000  0.000  0.000  0.000  0.000  0.015
  6  0.029  0.000  0.000  0.000  0.000  0.000  0.000  0.000  0.000  0.029
  7  0.034  0.000  0.000  0.000  0.000  0.000  0.000  0.000  0.000  0.034
  8  0.013  0.000  0.000  0.000  0.000  0.000  0.000  0.000  0.000  0.013
tot  0.091  0.088  0.004  0.007  0.000  0.000  0.000  0.000  0.000  0.190
 
band  18 # energy    9.31398787 # occ.  0.00000000
 
ion      s     py     pz     px    dxy    dyz    dz2    dxz    dx2    tot
  1  0.000  0.002  0.009  0.013  0.000  0.000  0.000  0.000  0.000  0.025
  2  0.000  0.002  0.009  0.013  0.000  0.000  0.000  0.000  0.000  0.025
  3  0.000  0.002  0.009  0.013  0.000  0.000  0.000  0.000  0.000  0.025
  4  0.000  0.002  0.009  0.013  0.000  0.000  0.000  0.000  0.000  0.025
  5  0.026  0.000  0.000  0.000  0.000  0.000  0.000  0.000  0.000  0.026
  6  0.012  0.000  0.000  0.000  0.000  0.000  0.000  0.000  0.000  0.012
  7  0.015  0.000  0.000  0.000  0.000  0.000  0.000  0.000  0.000  0.015
  8  0.038  0.000  0.000  0.000  0.000  0.000  0.000  0.000  0.000  0.038
tot  0.091  0.009  0.037  0.053  0.000  0.000  0.000  0.000  0.000  0.190
 
band  19 # energy    9.31398787 # occ.  0.00000000
 
ion      s     py     pz     px    dxy    dyz    dz2    dxz    dx2    tot
  1  0.000  0.000  0.015  0.010  0.000  0.000  0.000  0.000  0.000  0.025
  2  0.000  0.000  0.015  0.010  0.000  0.000  0.000  0.000  0.000  0.025
  3  0.000  0.000  0.015  0.010  0.000  0.000  0.000  0.000  0.000  0.025
  4  0.000  0.000  0.015  0.010  0.000  0.000  0.000  0.000  0.000  0.025
  5  0.027  0.000  0.000  0.000  0.000  0.000  0.000  0.000  0.000  0.027
  6  0.028  0.000  0.000  0.000  0.000  0.000  0.000  0.000  0.000  0.028
  7  0.019  0.000  0.000  0.000  0.000  0.000  0.000  0.000  0.000  0.019
  8  0.017  0.000  0.000  0.000  0.000  0.000  0.000  0.000  0.000  0.017
tot  0.091  0.002  0.059  0.038  0.000  0.000  0.000  0.000  0.000  0.190
 
band  20 # energy   12.21643857 # occ.  0.00000000
 
ion      s     py     pz     px    dxy    dyz    dz2    dxz    dx2    tot
  1  0.001  0.000  0.000  0.000  0.000  0.000  0.000  0.000  0.000  0.001
  2  0.035  0.000  0.000  0.000  0.000  0.000  0.000  0.000  0.000  0.035
  3  0.092  0.000  0.000  0.000  0.000  0.000  0.000  0.000  0.000  0.092
  4  0.124  0.000  0.000  0.000  0.000  0.000  0.000  0.000  0.000  0.124
  5  0.000  0.003  0.005  0.001  0.000  0.000  0.000  0.000  0.000  0.009
  6  0.000  0.003  0.005  0.001  0.000  0.000  0.000  0.000  0.000  0.009
  7  0.000  0.003  0.005  0.001  0.000  0.000  0.000  0.000  0.000  0.009
  8  0.000  0.003  0.005  0.001  0.000  0.000  0.000  0.000  0.000  0.009
tot  0.253  0.012  0.019  0.003  0.000  0.000  0.000  0.000  0.000  0.288
 
band  21 # energy   12.21643857 # occ.  0.00000000
 
ion      s     py     pz     px    dxy    dyz    dz2    dxz    dx2    tot
  1  0.041  0.000  0.000  0.000  0.000  0.000  0.000  0.000  0.000  0.041
  2  0.087  0.000  0.000  0.000  0.000  0.000  0.000  0.000  0.000  0.087
  3  0.097  0.000  0.000  0.000  0.000  0.000  0.000  0.000  0.000  0.097
  4  0.028  0.000  0.000  0.000  0.000  0.000  0.000  0.000  0.000  0.028
  5  0.000  0.001  0.002  0.006  0.000  0.000  0.000  0.000  0.000  0.009
  6  0.000  0.001  0.002  0.006  0.000  0.000  0.000  0.000  0.000  0.009
  7  0.000  0.001  0.002  0.006  0.000  0.000  0.000  0.000  0.000  0.009
  8  0.000  0.001  0.002  0.006  0.000  0.000  0.000  0.000  0.000  0.009
tot  0.253  0.003  0.007  0.026  0.000  0.000  0.000  0.000  0.000  0.288
 
band  22 # energy   12.21643857 # occ.  0.00000000
 
ion      s     py     pz     px    dxy    dyz    dz2    dxz    dx2    tot
  1  0.148  0.000  0.000  0.000  0.000  0.000  0.000  0.000  0.000  0.148
  2  0.068  0.000  0.000  0.000  0.000  0.000  0.000  0.000  0.000  0.068
  3  0.000  0.000  0.000  0.000  0.000  0.000  0.000  0.000  0.000  0.000
  4  0.037  0.000  0.000  0.000  0.000  0.000  0.000  0.000  0.000  0.037
  5  0.000  0.005  0.002  0.002  0.000  0.000  0.000  0.000  0.000  0.009
  6  0.000  0.005  0.002  0.002  0.000  0.000  0.000  0.000  0.000  0.009
  7  0.000  0.005  0.002  0.002  0.000  0.000  0.000  0.000  0.000  0.009
  8  0.000  0.005  0.002  0.002  0.000  0.000  0.000  0.000  0.000  0.009
tot  0.253  0.020  0.009  0.006  0.000  0.000  0.000  0.000  0.000  0.288
 
band  23 # energy   14.00260380 # occ.  0.00000000
 
ion      s     py     pz     px    dxy    dyz    dz2    dxz    dx2    tot
  1  0.031  0.000  0.000  0.000  0.000  0.000  0.000  0.000  0.000  0.031
  2  0.031  0.000  0.000  0.000  0.000  0.000  0.000  0.000  0.000  0.031
  3  0.031  0.000  0.000  0.000  0.000  0.000  0.000  0.000  0.000  0.031
  4  0.031  0.000  0.000  0.000  0.000  0.000  0.000  0.000  0.000  0.031
  5  0.111  0.000  0.000  0.000  0.000  0.000  0.000  0.000  0.000  0.111
  6  0.111  0.000  0.000  0.000  0.000  0.000  0.000  0.000  0.000  0.111
  7  0.111  0.000  0.000  0.000  0.000  0.000  0.000  0.000  0.000  0.111
  8  0.111  0.000  0.000  0.000  0.000  0.000  0.000  0.000  0.000  0.111
tot  0.571  0.000  0.000  0.000  0.000  0.000  0.000  0.000  0.000  0.571
 
band  24 # energy   15.14865622 # occ.  0.00000000
 
ion      s     py     pz     px    dxy    dyz    dz2    dxz    dx2    tot
  1  0.000  0.074  0.029  0.022  0.000  0.000  0.000  0.000  0.000  0.125
  2  0.000  0.074  0.029  0.022  0.000  0.000  0.000  0.000  0.000  0.125
  3  0.000  0.074  0.029  0.022  0.000  0.000  0.000  0.000  0.000  0.125
  4  0.000  0.074  0.029  0.022  0.000  0.000  0.000  0.000  0.000  0.125
  5  0.000  0.001  0.001  0.000  0.000  0.000  0.000  0.000  0.000  0.003
  6  0.000  0.001  0.001  0.000  0.000  0.000  0.000  0.000  0.000  0.003
  7  0.000  0.001  0.001  0.000  0.000  0.000  0.000  0.000  0.000  0.003
  8  0.000  0.001  0.001  0.000  0.000  0.000  0.000  0.000  0.000  0.003
tot  0.000  0.301  0.120  0.088  0.000  0.000  0.000  0.000  0.000  0.509
 
band  25 # energy   15.14865622 # occ.  0.00000000
 
ion      s     py     pz     px    dxy    dyz    dz2    dxz    dx2    tot
  1  0.000  0.020  0.036  0.069  0.000  0.000  0.000  0.000  0.000  0.125
  2  0.000  0.020  0.036  0.069  0.000  0.000  0.000  0.000  0.000  0.125
  3  0.000  0.020  0.036  0.069  0.000  0.000  0.000  0.000  0.000  0.125
  4  0.000  0.020  0.036  0.069  0.000  0.000  0.000  0.000  0.000  0.125
  5  0.000  0.000  0.001  0.001  0.000  0.000  0.000  0.000  0.000  0.003
  6  0.000  0.000  0.001  0.001  0.000  0.000  0.000  0.000  0.000  0.003
  7  0.000  0.000  0.001  0.001  0.000  0.000  0.000  0.000  0.000  0.003
  8  0.000  0.000  0.001  0.001  0.000  0.000  0.000  0.000  0.000  0.003
tot  0.000  0.082  0.147  0.280  0.000  0.000  0.000  0.000  0.000  0.509
 
band  26 # energy   15.14865622 # occ.  0.00000000
 
ion      s     py     pz     px    dxy    dyz    dz2    dxz    dx2    tot
  1  0.000  0.031  0.059  0.034  0.000  0.000  0.000  0.000  0.000  0.125
  2  0.000  0.031  0.059  0.034  0.000  0.000  0.000  0.000  0.000  0.125
  3  0.000  0.031  0.059  0.034  0.000  0.000  0.000  0.000  0.000  0.125
  4  0.000  0.031  0.059  0.034  0.000  0.000  0.000  0.000  0.000  0.125
  5  0.000  0.001  0.001  0.001  0.000  0.000  0.000  0.000  0.000  0.003
  6  0.000  0.001  0.001  0.001  0.000  0.000  0.000  0.000  0.000  0.003
  7  0.000  0.001  0.001  0.001  0.000  0.000  0.000  0.000  0.000  0.003
  8  0.000  0.001  0.001  0.001  0.000  0.000  0.000  0.000  0.000  0.003
tot  0.000  0.126  0.242  0.141  0.000  0.000  0.000  0.000  0.000  0.509
 
band  27 # energy   21.82342789 # occ.  0.00000000
 
ion      s     py     pz     px    dxy    dyz    dz2    dxz    dx2    tot
  1  0.000  0.002  0.041  0.036  0.000  0.000  0.000  0.000  0.000  0.080
  2  0.000  0.007  0.007  0.036  0.000  0.000  0.000  0.000  0.000  0.050
  3  0.000  0.002  0.007  0.012  0.000  0.000  0.000  0.000  0.000  0.022
  4  0.000  0.007  0.041  0.012  0.000  0.000  0.000  0.000  0.000  0.061
  5  0.000  0.078  0.027  0.027  0.000  0.000  0.000  0.000  0.000  0.132
  6  0.000  0.005  0.003  0.027  0.000  0.000  0.000  0.000  0.000  0.035
  7  0.000  0.078  0.003  0.016  0.000  0.000  0.000  0.000  0.000  0.097
  8  0.000  0.005  0.027  0.016  0.000  0.000  0.000  0.000  0.000  0.048
tot  0.000  0.183  0.158  0.183  0.000  0.000  0.000  0.000  0.000  0.524
 
band  28 # energy   21.82342789 # occ.  0.00000000
 
ion      s     py     pz     px    dxy    dyz    dz2    dxz    dx2    tot
  1  0.000  0.001  0.021  0.007  0.000  0.000  0.000  0.000  0.000  0.028
  2  0.000  0.013  0.001  0.007  0.000  0.000  0.000  0.000  0.000  0.021
  3  0.000  0.001  0.001  0.063  0.000  0.000  0.000  0.000  0.000  0.065
  4  0.000  0.013  0.021  0.063  0.000  0.000  0.000  0.000  0.000  0.097
  5  0.000  0.012  0.008  0.014  0.000  0.000  0.000  0.000  0.000  0.034
  6  0.000  0.092  0.028  0.014  0.000  0.000  0.000  0.000  0.000  0.134
  7  0.000  0.012  0.028  0.002  0.000  0.000  0.000  0.000  0.000  0.042
  8  0.000  0.092  0.008  0.002  0.000  0.000  0.000  0.000  0.000  0.102
tot  0.000  0.235  0.117  0.172  0.000  0.000  0.000  0.000  0.000  0.524
 
band  29 # energy   21.82342789 # occ.  0.00000000
 
ion      s     py     pz     px    dxy    dyz    dz2    dxz    dx2    tot
  1  0.000  0.002  0.002  0.001  0.000  0.000  0.000  0.000  0.000  0.006
  2  0.000  0.012  0.080  0.001  0.000  0.000  0.000  0.000  0.000  0.094
  3  0.000  0.002  0.080  0.008  0.000  0.000  0.000  0.000  0.000  0.090
  4  0.000  0.012  0.002  0.008  0.000  0.000  0.000  0.000  0.000  0.023
  5  0.000  0.040  0.014  0.017  0.000  0.000  0.000  0.000  0.000  0.071
  6  0.000  0.023  0.007  0.017  0.000  0.000  0.000  0.000  0.000  0.047
  7  0.000  0.040  0.007  0.054  0.000  0.000  0.000  0.000  0.000  0.101
  8  0.000  0.023  0.014  0.054  0.000  0.000  0.000  0.000  0.000  0.092
tot  0.000  0.156  0.206  0.162  0.000  0.000  0.000  0.000  0.000  0.524
 
band  30 # energy   21.82342789 # occ.  0.00000000
 
ion      s     py     pz     px    dxy    dyz    dz2    dxz    dx2    tot
  1  0.000  0.065  0.008  0.013  0.000  0.000  0.000  0.000  0.000  0.086
  2  0.000  0.016  0.001  0.013  0.000  0.000  0.000  0.000  0.000  0.030
  3  0.000  0.065  0.001  0.003  0.000  0.000  0.000  0.000  0.000  0.070
  4  0.000  0.016  0.008  0.003  0.000  0.000  0.000  0.000  0.000  0.027
  5  0.000  0.012  0.028  0.034  0.000  0.000  0.000  0.000  0.000  0.073
  6  0.000  0.004  0.003  0.034  0.000  0.000  0.000  0.000  0.000  0.041
  7  0.000  0.012  0.003  0.075  0.000  0.000  0.000  0.000  0.000  0.090
  8  0.000  0.004  0.028  0.075  0.000  0.000  0.000  0.000  0.000  0.106
tot  0.000  0.192  0.081  0.250  0.000  0.000  0.000  0.000  0.000  0.524
 
band  31 # energy   21.82342789 # occ.  0.00000000
 
ion      s     py     pz     px    dxy    dyz    dz2    dxz    dx2    tot
  1  0.000  0.004  0.012  0.017  0.000  0.000  0.000  0.000  0.000  0.032
  2  0.000  0.051  0.012  0.017  0.000  0.000  0.000  0.000  0.000  0.080
  3  0.000  0.004  0.012  0.010  0.000  0.000  0.000  0.000  0.000  0.027
  4  0.000  0.051  0.012  0.010  0.000  0.000  0.000  0.000  0.000  0.073
  5  0.000  0.008  0.061  0.037  0.000  0.000  0.000  0.000  0.000  0.106
  6  0.000  0.013  0.031  0.037  0.000  0.000  0.000  0.000  0.000  0.082
  7  0.000  0.008  0.031  0.005  0.000  0.000  0.000  0.000  0.000  0.044
  8  0.000  0.013  0.061  0.005  0.000  0.000  0.000  0.000  0.000  0.079
tot  0.000  0.154  0.232  0.137  0.000  0.000  0.000  0.000  0.000  0.524
 
band  32 # energy   21.82342789 # occ.  0.00000000
 
ion      s     py     pz     px    dxy    dyz    dz2    dxz    dx2    tot
  1  0.000  0.032  0.022  0.032  0.000  0.000  0.000  0.000  0.000  0.087
  2  0.000  0.007  0.004  0.032  0.000  0.000  0.000  0.000  0.000  0.043
  3  0.000  0.032  0.004  0.009  0.000  0.000  0.000  0.000  0.000  0.045
  4  0.000  0.007  0.022  0.009  0.000  0.000  0.000  0.000  0.000  0.037
  5  0.000  0.005  0.017  0.027  0.000  0.000  0.000  0.000  0.000  0.050
  6  0.000  0.019  0.083  0.027  0.000  0.000  0.000  0.000  0.000  0.129
  7  0.000  0.005  0.083  0.004  0.000  0.000  0.000  0.000  0.000  0.092
  8  0.000  0.019  0.017  0.004  0.000  0.000  0.000  0.000  0.000  0.040
tot  0.000  0.127  0.253  0.144  0.000  0.000  0.000  0.000  0.000  0.524
 
band  33 # energy   22.36722272 # occ.  0.00000000
 
ion      s     py     pz     px    dxy    dyz    dz2    dxz    dx2    tot
  1  0.000  0.000  0.000  0.000  0.000  0.000  0.000  0.000  0.000  0.000
  2  0.000  0.000  0.000  0.000  0.000  0.000  0.000  0.000  0.000  0.000
  3  0.000  0.000  0.000  0.000  0.000  0.000  0.000  0.000  0.000  0.000
  4  0.000  0.000  0.000  0.000  0.000  0.000  0.000  0.000  0.000  0.000
  5  0.000  0.000  0.000  0.000  0.000  0.000  0.000  0.000  0.000  0.000
  6  0.000  0.000  0.000  0.000  0.000  0.000  0.000  0.000  0.000  0.000
  7  0.000  0.000  0.000  0.000  0.000  0.000  0.000  0.000  0.000  0.000
  8  0.000  0.000  0.000  0.000  0.000  0.000  0.000  0.000  0.000  0.000
tot  0.000  0.000  0.000  0.000  0.000  0.000  0.000  0.000  0.000  0.000
 
band  34 # energy   22.36722272 # occ.  0.00000000
 
ion      s     py     pz     px    dxy    dyz    dz2    dxz    dx2    tot
  1  0.000  0.000  0.000  0.000  0.000  0.000  0.000  0.000  0.000  0.000
  2  0.000  0.000  0.000  0.000  0.000  0.000  0.000  0.000  0.000  0.000
  3  0.000  0.000  0.000  0.000  0.000  0.000  0.000  0.000  0.000  0.000
  4  0.000  0.000  0.000  0.000  0.000  0.000  0.000  0.000  0.000  0.000
  5  0.000  0.000  0.000  0.000  0.000  0.000  0.000  0.000  0.000  0.000
  6  0.000  0.000  0.000  0.000  0.000  0.000  0.000  0.000  0.000  0.000
  7  0.000  0.000  0.000  0.000  0.000  0.000  0.000  0.000  0.000  0.000
  8  0.000  0.000  0.000  0.000  0.000  0.000  0.000  0.000  0.000  0.000
tot  0.000  0.000  0.000  0.000  0.000  0.000  0.000  0.000  0.000  0.000
 
band  35 # energy   22.56437001 # occ.  0.00000000
 
ion      s     py     pz     px    dxy    dyz    dz2    dxz    dx2    tot
  1  0.005  0.000  0.000  0.000  0.000  0.000  0.000  0.000  0.000  0.005
  2  0.024  0.000  0.000  0.000  0.000  0.000  0.000  0.000  0.000  0.024
  3  0.006  0.000  0.000  0.000  0.000  0.000  0.000  0.000  0.000  0.006
  4  0.041  0.000  0.000  0.000  0.000  0.000  0.000  0.000  0.000  0.041
  5  0.000  0.004  0.066  0.067  0.000  0.000  0.000  0.000  0.000  0.137
  6  0.000  0.004  0.066  0.067  0.000  0.000  0.000  0.000  0.000  0.137
  7  0.000  0.004  0.066  0.067  0.000  0.000  0.000  0.000  0.000  0.137
  8  0.000  0.004  0.066  0.067  0.000  0.000  0.000  0.000  0.000  0.137
tot  0.077  0.016  0.264  0.270  0.000  0.000  0.000  0.000  0.000  0.626
 
band  36 # energy   22.56437001 # occ.  0.00000000
 
ion      s     py     pz     px    dxy    dyz    dz2    dxz    dx2    tot
  1  0.032  0.000  0.000  0.000  0.000  0.000  0.000  0.000  0.000  0.032
  2  0.030  0.000  0.000  0.000  0.000  0.000  0.000  0.000  0.000  0.030
  3  0.013  0.000  0.000  0.000  0.000  0.000  0.000  0.000  0.000  0.013
  4  0.002  0.000  0.000  0.000  0.000  0.000  0.000  0.000  0.000  0.002
  5  0.000  0.081  0.035  0.022  0.000  0.000  0.000  0.000  0.000  0.137
  6  0.000  0.081  0.035  0.022  0.000  0.000  0.000  0.000  0.000  0.137
  7  0.000  0.081  0.035  0.022  0.000  0.000  0.000  0.000  0.000  0.137
  8  0.000  0.081  0.035  0.022  0.000  0.000  0.000  0.000  0.000  0.137
tot  0.077  0.323  0.140  0.087  0.000  0.000  0.000  0.000  0.000  0.626
 
band  37 # energy   22.56437001 # occ.  0.00000000
 
ion      s     py     pz     px    dxy    dyz    dz2    dxz    dx2    tot
  1  0.020  0.000  0.000  0.000  0.000  0.000  0.000  0.000  0.000  0.020
  2  0.003  0.000  0.000  0.000  0.000  0.000  0.000  0.000  0.000  0.003
  3  0.038  0.000  0.000  0.000  0.000  0.000  0.000  0.000  0.000  0.038
  4  0.015  0.000  0.000  0.000  0.000  0.000  0.000  0.000  0.000  0.015
  5  0.000  0.053  0.036  0.048  0.000  0.000  0.000  0.000  0.000  0.137
  6  0.000  0.053  0.036  0.048  0.000  0.000  0.000  0.000  0.000  0.137
  7  0.000  0.053  0.036  0.048  0.000  0.000  0.000  0.000  0.000  0.137
  8  0.000  0.053  0.036  0.048  0.000  0.000  0.000  0.000  0.000  0.137
tot  0.077  0.212  0.145  0.193  0.000  0.000  0.000  0.000  0.000  0.626
 
band  38 # energy   24.19627079 # occ.  0.00000000
 
ion      s     py     pz     px    dxy    dyz    dz2    dxz    dx2    tot
  1  0.095  0.000  0.000  0.000  0.000  0.000  0.000  0.000  0.000  0.095
  2  0.095  0.000  0.000  0.000  0.000  0.000  0.000  0.000  0.000  0.095
  3  0.095  0.000  0.000  0.000  0.000  0.000  0.000  0.000  0.000  0.095