<?xml version="1.0" encoding="ISO-8859-1"?>
<modeling>
 <generator>
  <i name="program" type="string">vasp </i>
  <i name="version" type="string">5.3.5  </i>
  <i name="subversion" type="string">31Mar14 (build Oct 01 2015 16:19:09) complex                          parallel </i>
  <i name="platform" type="string">LinuxIFC </i>
  <i name="date" type="string">2023 05 07 </i>
  <i name="time" type="string">19:51:13 </i>
 </generator>
 <incar>
  <i type="string" name="PREC">normal</i>
  <i type="int" name="IBRION">    -1</i>
  <i type="int" name="NSW">     0</i>
  <i type="int" name="NEDOS">  1000</i>
  <i type="int" name="ISMEAR">    -5</i>
  <i type="logical" name="LORBIT"> F  </i>
 </incar>
 <kpoints>
  <generation param="Gamma">
   <v type="int" name="divisions">       3        3        3 </v>
   <v name="usershift">      0.00000000       0.00000000       0.00000000 </v>
   <v name="genvec1">      0.33333333      -0.00000000       0.00000000 </v>
   <v name="genvec2">      0.00000000       0.33333333       0.00000000 </v>
   <v name="genvec3">     -0.00000000      -0.00000000       0.33333333 </v>
   <v name="shift">      0.00000000       0.00000000       0.00000000 </v>
  </generation>
  <varray name="kpointlist" >
   <v>       0.00000000       0.00000000       0.00000000 </v>
   <v>       0.33333333      -0.00000000       0.00000000 </v>
   <v>       0.33333333       0.33333333       0.00000000 </v>
   <v>       0.33333333       0.33333333       0.33333333 </v>
  </varray>
  <varray name="weights" >
   <v>       0.03703704 </v>
   <v>       0.22222222 </v>
   <v>       0.44444444 </v>
   <v>       0.29629630 </v>
  </varray>
  <varray name="tetrahedronlist"  type="int" >
   <v type="int" >       12        1        2        2        3 </v>
   <v type="int" >       18        2        2        3        3 </v>
   <v type="int" >       24        2        3        3        4 </v>
   <v type="int" >       12        2        3        3        3 </v>
   <v type="int" >       24        3        3        3        4 </v>
   <v type="int" >       18        3        3        4        4 </v>
   <v type="int" >       12        3        4        4        4 </v>
   <v type="int" >       12        2        2        3        4 </v>
   <v type="int" >       12        2        3        4        4 </v>
   <v type="int" >       12        1        2        3        4 </v>
   <v type="int" >        6        4        4        4        4 </v>
  </varray>
  <i name="volumeweight">      0.00617284 </i>
 </kpoints>
 <parameters>
  <separator name="general" >
   <i type="string" name="SYSTEM">unknown system</i>
   <i type="logical" name="LCOMPAT"> F  </i>
  </separator>
  <separator name="electronic" >
   <i type="string" name="PREC">normal</i>
   <i name="ENMAX">    400.00000000</i>
   <i name="ENAUG">    644.87300000</i>
   <i name="EDIFF">      0.00010000</i>
   <i type="int" name="IALGO">    38</i>
   <i type="int" name="IWAVPR">    10</i>
   <i type="int" name="NBANDS">    48</i>
   <i name="NELECT">     32.00000000</i>
   <i type="int" name="TURBO">     0</i>
   <i type="int" name="IRESTART">     0</i>
   <i type="int" name="NREBOOT">     0</i>
   <i type="int" name="NMIN">     0</i>
   <i name="EREF">      0.00000000</i>
   <separator name="electronic smearing" >
    <i type="int" name="ISMEAR">    -5</i>
    <i name="SIGMA">      0.20000000</i>
    <i name="KSPACING">      0.50000000</i>
    <i type="logical" name="KGAMMA"> T  </i>
   </separator>
   <separator name="electronic projectors" >
    <i type="logical" name="LREAL"> F  </i>
    <v name="ROPT">      0.00000000      0.00000000</v>
    <i type="int" name="LMAXPAW">  -100</i>
    <i type="int" name="LMAXMIX">     2</i>
    <i type="logical" name="NLSPLINE"> F  </i>
   </separator>
   <separator name="electronic startup" >
    <i type="int" name="ISTART">     0</i>
    <i type="int" name="ICHARG">     2</i>
    <i type="int" name="INIWAV">     1</i>
   </separator>
   <separator name="electronic spin" >
    <i type="int" name="ISPIN">     1</i>
    <i type="logical" name="LNONCOLLINEAR"> F  </i>
    <v name="MAGMOM">      1.00000000      1.00000000      1.00000000      1.00000000      1.00000000      1.00000000      1.00000000      1.00000000</v>
    <i name="NUPDOWN">     -1.00000000</i>
    <i type="logical" name="LSORBIT"> F  </i>
    <v name="SAXIS">      0.00000000      0.00000000      1.00000000</v>
    <i type="logical" name="LSPIRAL"> F  </i>
    <v name="QSPIRAL">      0.00000000      0.00000000      0.00000000</v>
    <i type="logical" name="LZEROZ"> F  </i>
   </separator>
   <separator name="electronic exchange-correlation" >
    <i type="logical" name="LASPH"> F  </i>
    <i type="logical" name="LMETAGGA"> F  </i>
   </separator>
   <separator name="electronic convergence" >
    <i type="int" name="NELM">    60</i>
    <i type="int" name="NELMDL">    -5</i>
    <i type="int" name="NELMIN">     2</i>
    <i name="ENINI">    400.00000000</i>
    <separator name="electronic convergence detail" >
     <i type="logical" name="LDIAG"> T  </i>
     <i type="logical" name="LSUBROT"> F  </i>
     <i name="WEIMIN">      0.00000000</i>
     <i name="EBREAK">      0.00000052</i>
     <i name="DEPER">      0.30000000</i>
     <i type="int" name="NRMM">     4</i>
     <i name="TIME">      0.40000000</i>
    </separator>
   </separator>
   <separator name="electronic mixer" >
    <i name="AMIX">      0.40000000</i>
    <i name="BMIX">      1.00000000</i>
    <i name="AMIN">      0.10000000</i>
    <i name="AMIX_MAG">      1.60000000</i>
    <i name="BMIX_MAG">      1.00000000</i>
    <separator name="electronic mixer details" >
     <i type="int" name="IMIX">     4</i>
     <i type="int" name="MAXMIX">   -45</i>
     <i name="WC">    100.00000000</i>
     <i type="int" name="INIMIX">     1</i>
     <i type="int" name="MIXPRE">     1</i>
     <i type="int" name="MREMOVE">     5</i>
    </separator>
   </separator>
   <separator name="electronic dipolcorrection" >
    <i type="logical" name="LDIPOL"> F  </i>
    <i type="logical" name="LMONO"> F  </i>
    <i type="int" name="IDIPOL">     0</i>
    <i name="EPSILON">      1.00000000</i>
    <v name="DIPOL">   -100.00000000   -100.00000000   -100.00000000</v>
    <i name="EFIELD">      0.00000000</i>
   </separator>
  </separator>
  <separator name="grids" >
   <i type="int" name="NGX">    24</i>
   <i type="int" name="NGY">    24</i>
   <i type="int" name="NGZ">    24</i>
   <i type="int" name="NGXF">    48</i>
   <i type="int" name="NGYF">    48</i>
   <i type="int" name="NGZF">    48</i>
   <i type="logical" name="ADDGRID"> F  </i>
  </separator>
  <separator name="ionic" >
   <i type="int" name="NSW">     0</i>
   <i type="int" name="IBRION">    -1</i>
   <i type="int" name="ISIF">     2</i>
   <i name="PSTRESS">      0.00000000</i>
   <i name="EDIFFG">      0.00100000</i>
   <i type="int" name="NFREE">     0</i>
   <i name="POTIM">      0.50000000</i>
   <i name="SMASS">     -3.00000000</i>
   <i name="SCALEE">      1.00000000</i>
  </separator>
  <separator name="ionic md" >
   <i name="TEBEG">      0.00010000</i>
   <i name="TEEND">      0.00010000</i>
   <i type="int" name="NBLOCK">     1</i>
   <i type="int" name="KBLOCK">     1</i>
   <i type="int" name="NPACO">   256</i>
   <i name="APACO">     16.00000000</i>
  </separator>
  <separator name="symmetry" >
   <i type="int" name="ISYM">     2</i>
   <i name="SYMPREC">      0.00001000</i>
  </separator>
  <separator name="dos" >
   <i type="logical" name="LORBIT"> F  </i>
   <v name="RWIGS">     -1.00000000     -1.00000000</v>
   <i type="int" name="NEDOS">  1000</i>
   <i name="EMIN">     10.00000000</i>
   <i name="EMAX">    -10.00000000</i>
   <i name="EFERMI">      0.00000000</i>
  </separator>
  <separator name="writing" >
   <i type="int" name="NWRITE">     2</i>
   <i type="logical" name="LWAVE"> T  </i>
   <i type="logical" name="LCHARG"> T  </i>
   <i type="logical" name="LPARD"> F  </i>
   <i type="logical" name="LVTOT"> F  </i>
   <i type="logical" name="LVHAR"> F  </i>
   <i type="logical" name="LELF"> F  </i>
   <i type="logical" name="LOPTICS"> F  </i>
   <v name="STM">      0.00000000      0.00000000      0.00000000      0.00000000      0.00000000      0.00000000      0.00000000</v>
  </separator>
  <separator name="performance" >
   <i type="int" name="NPAR">    48</i>
   <i type="int" name="NSIM">     4</i>
   <i type="int" name="NBLK">    -1</i>
   <i type="logical" name="LPLANE"> T  </i>
   <i type="logical" name="LSCALAPACK"> T  </i>
   <i type="logical" name="LSCAAWARE"> T  </i>
   <i type="logical" name="LSCALU"> F  </i>
   <i type="logical" name="LASYNC"> F  </i>
   <i type="logical" name="LORBITALREAL"> F  </i>
  </separator>
  <separator name="miscellaneous" >
   <i type="int" name="IDIOT">     3</i>
   <i type="logical" name="LMUSIC"> F  </i>
   <v name="POMASS">     28.08500000     12.01100000</v>
   <v name="DARWINR">      0.00000000      0.00000000</v>
   <v name="DARWINV">      1.00000000      1.00000000</v>
   <i type="logical" name="LCORR"> T  </i>
  </separator>
  <i type="logical" name="GGA_COMPAT"> T  </i>
  <i type="logical" name="LBERRY"> F  </i>
  <i type="int" name="ICORELEVEL">     0</i>
  <i type="logical" name="LDAU"> F  </i>
  <i type="int" name="I_CONSTRAINED_M">     0</i>
  <separator name="electronic exchange-correlation" >
   <i type="string" name="GGA">--</i>
   <i type="int" name="VOSKOWN">     0</i>
   <i type="logical" name="LHFCALC"> F  </i>
   <i type="string" name="PRECFOCK"></i>
   <i type="logical" name="LSYMGRAD"> F  </i>
   <i type="logical" name="LHFONE"> F  </i>
   <i type="logical" name="LRHFCALC"> F  </i>
   <i type="logical" name="LTHOMAS"> F  </i>
   <i type="logical" name="LMODELHF"> F  </i>
   <i name="ENCUT4O">     -1.00000000</i>
   <i type="int" name="EXXOEP">     0</i>
   <i type="int" name="FOURORBIT">     0</i>
   <i name="AEXX">      0.00000000</i>
   <i name="HFALPHA">      0.00000000</i>
   <i name="MCALPHA">      0.00000000</i>
   <i name="ALDAX">      1.00000000</i>
   <i name="AGGAX">      1.00000000</i>
   <i name="ALDAC">      1.00000000</i>
   <i name="AGGAC">      1.00000000</i>
   <i type="int" name="NKREDX">     1</i>
   <i type="int" name="NKREDY">     1</i>
   <i type="int" name="NKREDZ">     1</i>
   <i type="logical" name="SHIFTRED"> F  </i>
   <i type="logical" name="ODDONLY"> F  </i>
   <i type="logical" name="EVENONLY"> F  </i>
   <i type="int" name="LMAXFOCK">     0</i>
   <i type="int" name="NMAXFOCKAE">     0</i>
   <i type="logical" name="LFOCKAEDFT"> F  </i>
   <i name="HFSCREEN">      0.00000000</i>
   <i name="HFSCREENC">      0.00000000</i>
   <i type="int" name="NBANDSGWLOW">     0</i>
  </separator>
  <separator name="vdW DFT" >
   <i type="logical" name="LUSE_VDW"> F  </i>
   <i name="Zab_VDW">     -0.84910000</i>
   <i name="PARAM1">      0.12340000</i>
   <i name="PARAM2">      1.00000000</i>
   <i name="PARAM3">      0.00000000</i>
  </separator>
  <separator name="model GW" >
   <i type="int" name="MODEL_GW">     0</i>
   <i name="MODEL_EPS0">      6.30017634</i>
   <i name="MODEL_ALPHA">      1.00000000</i>
  </separator>
  <separator name="linear response parameters" >
   <i type="logical" name="LEPSILON"> F  </i>
   <i type="logical" name="LRPA"> F  </i>
   <i type="logical" name="LNABLA"> F  </i>
   <i type="logical" name="LVEL"> F  </i>
   <i type="int" name="KINTER">     0</i>
   <i name="CSHIFT">      0.10000000</i>
   <i name="OMEGAMAX">     -1.00000000</i>
   <i name="DEG_THRESHOLD">      0.00200000</i>
  </separator>
  <separator name="orbital magnetization" >
   <i type="logical" name="NUCIND"> F  </i>
   <v name="MAGPOS">      0.00000000      0.00000000      0.00000000</v>
   <i type="logical" name="LNICSALL"> T  </i>
   <i type="logical" name="ORBITALMAG"> F  </i>
   <i type="logical" name="LMAGBLOCH"> F  </i>
   <i type="logical" name="LCHIMAG"> F  </i>
   <i type="logical" name="LGAUGE"> T  </i>
   <i type="int" name="MAGATOM">     0</i>
   <v name="MAGDIPOL">      0.00000000      0.00000000      0.00000000</v>
   <v name="AVECCONST">      0.00000000      0.00000000      0.00000000</v>
  </separator>
  <separator name="response functions" >
   <i type="logical" name="LADDER"> F  </i>
   <i type="logical" name="LFXC"> F  </i>
   <i type="logical" name="LHARTREE"> T  </i>
   <i type="int" name="IBSE">     0</i>
   <i type="logical" name="LTCTE"> F  </i>
   <i type="logical" name="LTETE"> F  </i>
   <i type="logical" name="LTRIPLET"> F  </i>
   <i type="logical" name="LFXCEPS"> F  </i>
   <i type="logical" name="LFXHEG"> F  </i>
   <i type="logical" name="L2ORDER"> F  </i>
   <i type="logical" name="LUSEW"> F  </i>
   <i name="ENCUTGW">     -2.00000000</i>
   <i name="ENCUTGWSOFT">     -2.00000000</i>
   <i name="ENCUTLF">     -1.00000000</i>
   <i type="int" name="LMAXMP2">    -1</i>
   <i name="SCISSOR">      0.00000000</i>
   <i type="int" name="NOMEGA">     0</i>
   <i type="int" name="NOMEGAR">     0</i>
   <i type="int" name="NBANDSGW">    -1</i>
   <i type="int" name="NBANDSO">    -1</i>
   <i type="int" name="NBANDSV">    -1</i>
   <i type="int" name="NELM">     1</i>
   <i type="int" name="DIM">     3</i>
   <i type="int" name="ANTIRES">     0</i>
   <i name="OMEGAMAX">    -30.00000000</i>
   <i name="OMEGAMIN">    -30.00000000</i>
   <i name="OMEGATL">   -200.00000000</i>
   <i type="int" name="OMEGAGRID">     0</i>
   <i name="CSHIFT">     -0.10000000</i>
   <i type="logical" name="SELFENERGY"> F  </i>
   <i type="logical" name="LSPECTRAL"> F  </i>
   <i type="logical" name="ODDONLYGW"> F  </i>
   <i type="logical" name="EVENONLYGW"> F  </i>
   <i type="int" name="NKREDLFX">     1</i>
   <i type="int" name="NKREDLFY">     1</i>
   <i type="int" name="NKREDLFZ">     1</i>
   <i type="int" name="MAXMEM">  1800</i>
   <i type="int" name="TELESCOPE">     0</i>
   <i type="int" name="TAUPAR">     1</i>
  </separator>
  <separator name="External order field" >
   <i name="OFIELD_KAPPA">      0.00000000</i>
   <v name="OFIELD_K">      0.00000000      0.00000000      0.00000000</v>
   <i name="OFIELD_Q6_NEAR">      0.00000000</i>
   <i name="OFIELD_Q6_FAR">      0.00000000</i>
   <i name="OFIELD_A">      0.00000000</i>
  </separator>
 </parameters>
 <atominfo>
  <atoms>       8 </atoms>
  <types>       2 </types>
  <array name="atoms" >
   <dimension dim="1">ion</dimension>
   <field type="string">element</field>
   <field type="int">atomtype</field>
   <set>
    <rc><c>Si</c><c>   1</c></rc>
    <rc><c>Si</c><c>   1</c></rc>
    <rc><c>Si</c><c>   1</c></rc>
    <rc><c>Si</c><c>   1</c></rc>
    <rc><c>C </c><c>   2</c></rc>
    <rc><c>C </c><c>   2</c></rc>
    <rc><c>C </c><c>   2</c></rc>
    <rc><c>C </c><c>   2</c></rc>
   </set>
  </array>
  <array name="atomtypes" >
   <dimension dim="1">type</dimension>
   <field type="int">atomspertype</field>
   <field type="string">element</field>
   <field>mass</field>
   <field>valence</field>
   <field type="string">pseudopotential</field>
   <set>
    <rc><c>   4</c><c>Si</c><c>     28.08500000</c><c>      4.00000000</c><c>  PAW_PBE Si 05Jan2001                  </c></rc>
    <rc><c>   4</c><c>C </c><c>     12.01100000</c><c>      4.00000000</c><c>  PAW_PBE C 08Apr2002                   </c></rc>
   </set>
  </array>
 </atominfo>
 <structure name="initialpos" >
  <crystal>
   <varray name="basis" >
    <v>       4.37956000       0.00000000       0.00000000 </v>
    <v>       0.00000000       4.37956000       0.00000000 </v>
    <v>       0.00000000       0.00000000       4.37956000 </v>
   </varray>
   <i name="volume">     84.00235114 </i>
   <varray name="rec_basis" >
    <v>       0.22833344      -0.00000000       0.00000000 </v>
    <v>       0.00000000       0.22833344       0.00000000 </v>
    <v>      -0.00000000      -0.00000000       0.22833344 </v>
   </varray>
  </crystal>
  <varray name="positions" >
   <v>       0.25000000       0.25000000       0.75000000 </v>
   <v>       0.25000000       0.75000000       0.25000000 </v>
   <v>       0.75000000       0.25000000       0.25000000 </v>
   <v>       0.75000000       0.75000000       0.75000000 </v>
   <v>       0.00000000       0.00000000       0.00000000 </v>
   <v>       0.00000000       0.50000000       0.50000000 </v>
   <v>       0.50000000       0.00000000       0.50000000 </v>
   <v>       0.50000000       0.50000000       0.00000000 </v>
  </varray>
 </structure>
 <calculation>
  <scstep>
   <time name="dav">    0.37    0.38</time>
   <time name="total">    0.43    0.46</time>
   <energy>
    <i name="alphaZ">     44.11680206 </i>
    <i name="ewald">  -1133.53851522 </i>
    <i name="hartreedc">    -84.16848913 </i>
    <i name="XCdc">     18.11747549 </i>
    <i name="pawpsdc">    786.58338398 </i>
    <i name="pawaedc">   -718.48787991 </i>
    <i name="eentropy">      0.00000000 </i>
    <i name="bandstr">     62.37046438 </i>
    <i name="atom">   1000.77188040 </i>
    <i name="e_fr_energy">    -24.23487796 </i>
    <i name="e_wo_entrp">    -24.23487796 </i>
    <i name="e_0_energy">    -24.23487796 </i>
   </energy>
  </scstep>
  <scstep>
   <time name="dav">    0.62    0.62</time>
   <time name="total">    0.62    0.63</time>
   <energy>
    <i name="e_fr_energy">    -67.12982785 </i>
    <i name="e_wo_entrp">    -67.12982785 </i>
    <i name="e_0_energy">    -67.12982785 </i>
   </energy>
  </scstep>
  <scstep>
   <time name="dav">    0.36    0.36</time>
   <time name="total">    0.36    0.36</time>
   <energy>
    <i name="e_fr_energy">    -67.44491564 </i>
    <i name="e_wo_entrp">    -67.44491564 </i>
    <i name="e_0_energy">    -67.44491564 </i>
   </energy>
  </scstep>
  <scstep>
   <time name="dav">    1.22    1.23</time>
   <time name="total">    1.22    1.23</time>
   <energy>
    <i name="e_fr_energy">    -67.44541511 </i>
    <i name="e_wo_entrp">    -67.44541511 </i>
    <i name="e_0_energy">    -67.44541511 </i>
   </energy>
  </scstep>
  <scstep>
   <time name="dav">    0.53    0.53</time>
   <time name="total">    0.53    0.54</time>
   <energy>
    <i name="e_fr_energy">    -67.44541511 </i>
    <i name="e_wo_entrp">    -67.44541511 </i>
    <i name="e_0_energy">    -67.44541511 </i>
   </energy>
  </scstep>
  <scstep>
   <time name="dav">    0.36    0.37</time>
   <time name="total">    0.39    0.39</time>
   <energy>
    <i name="e_fr_energy">    -60.46553665 </i>
    <i name="e_wo_entrp">    -60.46553665 </i>
    <i name="e_0_energy">    -60.46553665 </i>
   </energy>
  </scstep>
  <scstep>
   <time name="dav">    0.80    0.80</time>
   <time name="total">    0.82    0.83</time>
   <energy>
    <i name="e_fr_energy">    -60.24563871 </i>
    <i name="e_wo_entrp">    -60.24563871 </i>
    <i name="e_0_energy">    -60.24563871 </i>
   </energy>
  </scstep>
  <scstep>
   <time name="dav">    0.73    0.73</time>
   <time name="total">    0.75    0.75</time>
   <energy>
    <i name="e_fr_energy">    -60.21588051 </i>
    <i name="e_wo_entrp">    -60.21588051 </i>
    <i name="e_0_energy">    -60.21588051 </i>
   </energy>
  </scstep>
  <scstep>
   <time name="dav">    0.93    0.94</time>
   <time name="total">    0.95    0.96</time>
   <energy>
    <i name="e_fr_energy">    -60.21730667 </i>
    <i name="e_wo_entrp">    -60.21730667 </i>
    <i name="e_0_energy">    -60.21730667 </i>
   </energy>
  </scstep>
  <scstep>
   <time name="dav">    0.71    0.71</time>
   <time name="total">    0.73    0.73</time>
   <energy>
    <i name="e_fr_energy">    -60.21783733 </i>
    <i name="e_wo_entrp">    -60.21783733 </i>
    <i name="e_0_energy">    -60.21783733 </i>
   </energy>
  </scstep>
  <scstep>
   <time name="dav">    1.17    1.17</time>
   <time name="total">    1.18    1.19</time>
   <energy>
    <i name="alphaZ">     44.11680206 </i>
    <i name="ewald">  -1133.53851522 </i>
    <i name="hartreedc">   -128.22979484 </i>
    <i name="XCdc">     22.29303403 </i>
    <i name="pawpsdc">   4072.83001556 </i>
    <i name="pawaedc">  -4005.42882531 </i>
    <i name="eentropy">      0.00000000 </i>
    <i name="bandstr">     66.96755385 </i>
    <i name="atom">   1000.77188040 </i>
    <i name="e_fr_energy">    -60.21784948 </i>
    <i name="e_wo_entrp">    -60.21784948 </i>
    <i name="e_0_energy">    -60.21784948 </i>
   </energy>
  </scstep>
  <structure>
   <crystal>
    <varray name="basis" >
     <v>       4.37956000       0.00000000       0.00000000 </v>
     <v>       0.00000000       4.37956000       0.00000000 </v>
     <v>       0.00000000       0.00000000       4.37956000 </v>
    </varray>
    <i name="volume">     84.00235114 </i>
    <varray name="rec_basis" >
     <v>       0.22833344      -0.00000000       0.00000000 </v>
     <v>       0.00000000       0.22833344       0.00000000 </v>
     <v>      -0.00000000      -0.00000000       0.22833344 </v>
    </varray>
   </crystal>
   <varray name="positions" >
    <v>       0.25000000       0.25000000       0.75000000 </v>
    <v>       0.25000000       0.75000000       0.25000000 </v>
    <v>       0.75000000       0.25000000       0.25000000 </v>
    <v>       0.75000000       0.75000000       0.75000000 </v>
    <v>       0.00000000       0.00000000       0.00000000 </v>
    <v>       0.00000000       0.50000000       0.50000000 </v>
    <v>       0.50000000       0.00000000       0.50000000 </v>
    <v>       0.50000000       0.50000000       0.00000000 </v>
   </varray>
  </structure>
  <varray name="forces" >
   <v>       0.00000000       0.00000000       0.00000000 </v>
   <v>      -0.00000000       0.00000000       0.00000000 </v>
   <v>      -0.00000000       0.00000000       0.00000000 </v>
   <v>       0.00000000       0.00000000       0.00000000 </v>
   <v>       0.00000000       0.00000000       0.00000000 </v>
   <v>       0.00000000      -0.00000000      -0.00000000 </v>
   <v>       0.00000000      -0.00000000      -0.00000000 </v>
   <v>      -0.00000000      -0.00000000      -0.00000000 </v>
  </varray>
  <varray name="stress" >
   <v>     -10.73047798       0.00000000       0.00000000 </v>
   <v>       0.00000000     -10.73047798       0.00000000 </v>
   <v>      -0.00000000       0.00000000     -10.73047798 </v>
  </varray>
  <energy>
   <i name="e_fr_energy">    -60.21784948 </i>
   <i name="e_wo_entrp">    -60.21784948 </i>
   <i name="e_0_energy">      0.00000000 </i>
  </energy>
  <time name="totalsc">    8.25    8.35</time>
  <eigenvalues>
   <array>
    <dimension dim="1">band</dimension>
    <dimension dim="2">kpoint</dimension>
    <dimension dim="3">spin</dimension>
    <field>eigene</field>
    <field>occ</field>
    <set>
     <set comment="spin 1">
      <set comment="kpoint 1">
       <r>   -7.3440    1.0000 </r>
       <r>   -2.3962    1.0000 </r>
       <r>   -2.3962    1.0000 </r>
       <r>   -2.3962    1.0000 </r>
       <r>    0.1958    1.0000 </r>
       <r>    0.1958    1.0000 </r>
       <r>    0.1958    1.0000 </r>
       <r>    4.7894    1.0000 </r>
       <r>    4.7894    1.0000 </r>
       <r>    4.7894    1.0000 </r>
       <r>    4.7894    1.0000 </r>
       <r>    4.7894    1.0000 </r>
       <r>    4.7894    1.0000 </r>
       <r>    7.9493    1.0000 </r>
       <r>    7.9493    1.0000 </r>
       <r>    7.9493    1.0000 </r>
       <r>    9.3140    0.0000 </r>
       <r>    9.3140    0.0000 </r>
       <r>    9.3140    0.0000 </r>
       <r>   12.2164    0.0000 </r>
       <r>   12.2164    0.0000 </r>
       <r>   12.2164    0.0000 </r>
       <r>   14.0026    0.0000 </r>
       <r>   15.1487    0.0000 </r>
       <r>   15.1487    0.0000 </r>
       <r>   15.1487    0.0000 </r>
       <r>   21.8234    0.0000 </r>
       <r>   21.8234    0.0000 </r>
       <r>   21.8234    0.0000 </r>
       <r>   21.8234    0.0000 </r>
       <r>   21.8234    0.0000 </r>
       <r>   21.8234    0.0000 </r>
       <r>   22.3672    0.0000 </r>
       <r>   22.3672    0.0000 </r>
       <r>   22.5644    0.0000 </r>
       <r>   22.5644    0.0000 </r>
       <r>   22.5644    0.0000 </r>
       <r>   24.1963    0.0000 </r>
       <r>   25.1068    0.0000 </r>
       <r>   25.1068    0.0000 </r>
       <r>   25.1068    0.0000 </r>
       <r>   27.9130    0.0000 </r>
       <r>   27.9130    0.0000 </r>
       <r>   27.9130    0.0000 </r>
       <r>   29.9070    0.0000 </r>
       <r>   29.9070    0.0000 </r>
       <r>   29.9070    0.0000 </r>
       <r>   29.9070    0.0000 </r>
      </set>
      <set comment="kpoint 2">
       <r>   -6.6331    1.0000 </r>
       <r>   -4.6033    1.0000 </r>
       <r>   -2.2326    1.0000 </r>
       <r>   -2.2326    1.0000 </r>
       <r>    0.6905    1.0000 </r>
       <r>    0.6905    1.0000 </r>
       <r>    2.8985    1.0000 </r>
       <r>    3.4929    1.0000 </r>
       <r>    3.4929    1.0000 </r>
       <r>    3.6154    1.0000 </r>
       <r>    3.6154    1.0000 </r>
       <r>    5.3640    1.0000 </r>
       <r>    5.3640    1.0000 </r>
       <r>    6.1450    1.0000 </r>
       <r>    6.8515    1.0000 </r>
       <r>    6.8515    1.0000 </r>
       <r>   10.5704    0.0000 </r>
       <r>   11.9239    0.0000 </r>
       <r>   11.9239    0.0000 </r>
       <r>   13.1036    0.0000 </r>
       <r>   13.4097    0.0000 </r>
       <r>   14.9550    0.0000 </r>
       <r>   14.9550    0.0000 </r>
       <r>   15.1569    0.0000 </r>
       <r>   16.8716    0.0000 </r>
       <r>   16.8716    0.0000 </r>
       <r>   18.6524    0.0000 </r>
       <r>   18.6524    0.0000 </r>
       <r>   18.7050    0.0000 </r>
       <r>   19.9561    0.0000 </r>
       <r>   19.9561    0.0000 </r>
       <r>   20.0209    0.0000 </r>
       <r>   20.0209    0.0000 </r>
       <r>   20.8080    0.0000 </r>
       <r>   21.9666    0.0000 </r>
       <r>   21.9666    0.0000 </r>
       <r>   23.1739    0.0000 </r>
       <r>   25.4946    0.0000 </r>
       <r>   25.5252    0.0000 </r>
       <r>   25.5252    0.0000 </r>
       <r>   26.5468    0.0000 </r>
       <r>   26.5468    0.0000 </r>
       <r>   26.7676    0.0000 </r>
       <r>   28.0444    0.0000 </r>
       <r>   28.8414    0.0000 </r>
       <r>   28.8414    0.0000 </r>
       <r>   29.9901    0.0000 </r>
       <r>   30.1773    0.0000 </r>
      </set>
      <set comment="kpoint 3">
       <r>   -5.9468    1.0000 </r>
       <r>   -4.0384    1.0000 </r>
       <r>   -4.0384    1.0000 </r>
       <r>   -2.7792    1.0000 </r>
       <r>    0.9422    1.0000 </r>
       <r>    2.0174    1.0000 </r>
       <r>    2.0174    1.0000 </r>
       <r>    2.3821    1.0000 </r>
       <r>    3.8857    1.0000 </r>
       <r>    3.8857    1.0000 </r>
       <r>    4.0551    1.0000 </r>
       <r>    5.5347    1.0000 </r>
       <r>    5.5513    1.0000 </r>
       <r>    5.5513    1.0000 </r>
       <r>    5.7927    1.0000 </r>
       <r>    7.5709    1.0000 </r>
       <r>   11.7476    0.0000 </r>
       <r>   12.8166    0.0000 </r>
       <r>   12.8166    0.0000 </r>
       <r>   14.8877    0.0000 </r>
       <r>   15.3957    0.0000 </r>
       <r>   15.6077    0.0000 </r>
       <r>   15.6077    0.0000 </r>
       <r>   15.9154    0.0000 </r>
       <r>   16.4084    0.0000 </r>
       <r>   16.4084    0.0000 </r>
       <r>   16.7851    0.0000 </r>
       <r>   17.0185    0.0000 </r>
       <r>   18.6196    0.0000 </r>
       <r>   19.2747    0.0000 </r>
       <r>   19.3515    0.0000 </r>
       <r>   19.4954    0.0000 </r>
       <r>   19.4954    0.0000 </r>
       <r>   20.6947    0.0000 </r>
       <r>   21.1285    0.0000 </r>
       <r>   21.1285    0.0000 </r>
       <r>   22.3556    0.0000 </r>
       <r>   22.4221    0.0000 </r>
       <r>   24.5984    0.0000 </r>
       <r>   24.5984    0.0000 </r>
       <r>   26.4528    0.0000 </r>
       <r>   26.6362    0.0000 </r>
       <r>   28.3483    0.0000 </r>
       <r>   28.3483    0.0000 </r>
       <r>   29.2889    0.0000 </r>
       <r>   29.2889    0.0000 </r>
       <r>   29.4501    0.0000 </r>
       <r>   29.9759    0.0000 </r>
      </set>
      <set comment="kpoint 4">
       <r>   -5.3047    1.0000 </r>
       <r>   -3.6883    1.0000 </r>
       <r>   -3.6883    1.0000 </r>
       <r>   -3.6883    1.0000 </r>
       <r>    0.2405    1.0000 </r>
       <r>    0.2405    1.0000 </r>
       <r>    0.2405    1.0000 </r>
       <r>    1.8156    1.0000 </r>
       <r>    5.1879    1.0000 </r>
       <r>    5.1879    1.0000 </r>
       <r>    5.1879    1.0000 </r>
       <r>    6.2096    1.0000 </r>
       <r>    6.2096    1.0000 </r>
       <r>    6.2096    1.0000 </r>
       <r>    7.1073    1.0000 </r>
       <r>    7.1073    1.0000 </r>
       <r>   12.7398    0.0000 </r>
       <r>   12.7398    0.0000 </r>
       <r>   12.7398    0.0000 </r>
       <r>   13.4976    0.0000 </r>
       <r>   15.5134    0.0000 </r>
       <r>   15.5134    0.0000 </r>
       <r>   15.6605    0.0000 </r>
       <r>   15.6605    0.0000 </r>
       <r>   15.6605    0.0000 </r>
       <r>   16.7256    0.0000 </r>
       <r>   16.7256    0.0000 </r>
       <r>   16.7256    0.0000 </r>
       <r>   17.7632    0.0000 </r>
       <r>   18.4624    0.0000 </r>
       <r>   18.4624    0.0000 </r>
       <r>   18.4624    0.0000 </r>
       <r>   21.7865    0.0000 </r>
       <r>   21.7865    0.0000 </r>
       <r>   21.7865    0.0000 </r>
       <r>   22.1231    0.0000 </r>
       <r>   22.1231    0.0000 </r>
       <r>   23.0581    0.0000 </r>
       <r>   25.1120    0.0000 </r>
       <r>   25.1120    0.0000 </r>
       <r>   25.1120    0.0000 </r>
       <r>   25.9943    0.0000 </r>
       <r>   25.9943    0.0000 </r>
       <r>   25.9943    0.0000 </r>
       <r>   28.9050    0.0000 </r>
       <r>   28.9050    0.0000 </r>
       <r>   28.9050    0.0000 </r>
       <r>   29.4733    0.0000 </r>
      </set>
     </set>
    </set>
   </array>
  </eigenvalues>
  <separator name="orbital magnetization" >
   <v name="MAGDIPOLOUT">      0.00000000      0.00000000      0.00000000</v>
  </separator>
  <dos>
   <i name="efermi">      7.98783599 </i>
   <total>
    <array>
     <dimension dim="1">gridpoints</dimension>
     <dimension dim="2">spin</dimension>
     <field>energy</field>
     <field>total</field>
     <field>integrated</field>
     <set>
      <set comment="spin 1">
       <r>    -9.3440     0.0000     0.0000 </r>
       <r>    -9.3025     0.0000     0.0000 </r>
       <r>    -9.2609     0.0000     0.0000 </r>
       <r>    -9.2193     0.0000     0.0000 </r>
       <r>    -9.1778     0.0000     0.0000 </r>
       <r>    -9.1362     0.0000     0.0000 </r>
       <r>    -9.0947     0.0000     0.0000 </r>
       <r>    -9.0531     0.0000     0.0000 </r>
       <r>    -9.0115     0.0000     0.0000 </r>
       <r>    -8.9700     0.0000     0.0000 </r>
       <r>    -8.9284     0.0000     0.0000 </r>
       <r>    -8.8868     0.0000     0.0000 </r>
       <r>    -8.8453     0.0000     0.0000 </r>
       <r>    -8.8037     0.0000     0.0000 </r>
       <r>    -8.7622     0.0000     0.0000 </r>
       <r>    -8.7206     0.0000     0.0000 </r>
       <r>    -8.6790     0.0000     0.0000 </r>
       <r>    -8.6375     0.0000     0.0000 </r>
       <r>    -8.5959     0.0000     0.0000 </r>
       <r>    -8.5543     0.0000     0.0000 </r>
       <r>    -8.5128     0.0000     0.0000 </r>
       <r>    -8.4712     0.0000     0.0000 </r>
       <r>    -8.4297     0.0000     0.0000 </r>
       <r>    -8.3881     0.0000     0.0000 </r>
       <r>    -8.3465     0.0000     0.0000 </r>
       <r>    -8.3050     0.0000     0.0000 </r>
       <r>    -8.2634     0.0000     0.0000 </r>
       <r>    -8.2218     0.0000     0.0000 </r>
       <r>    -8.1803     0.0000     0.0000 </r>
       <r>    -8.1387     0.0000     0.0000 </r>
       <r>    -8.0972     0.0000     0.0000 </r>
       <r>    -8.0556     0.0000     0.0000 </r>
       <r>    -8.0140     0.0000     0.0000 </r>
       <r>    -7.9725     0.0000     0.0000 </r>
       <r>    -7.9309     0.0000     0.0000 </r>
       <r>    -7.8893     0.0000     0.0000 </r>
       <r>    -7.8478     0.0000     0.0000 </r>
       <r>    -7.8062     0.0000     0.0000 </r>
       <r>    -7.7646     0.0000     0.0000 </r>
       <r>    -7.7231     0.0000     0.0000 </r>
       <r>    -7.6815     0.0000     0.0000 </r>
       <r>    -7.6400     0.0000     0.0000 </r>
       <r>    -7.5984     0.0000     0.0000 </r>
       <r>    -7.5568     0.0000     0.0000 </r>
       <r>    -7.5153     0.0000     0.0000 </r>
       <r>    -7.4737     0.0000     0.0000 </r>
       <r>    -7.4321     0.0000     0.0000 </r>
       <r>    -7.3906     0.0000     0.0000 </r>
       <r>    -7.3490     0.0000     0.0000 </r>
       <r>    -7.3075     0.0011     0.0000 </r>
       <r>    -7.2659     0.0052     0.0001 </r>
       <r>    -7.2243     0.0122     0.0005 </r>
       <r>    -7.1828     0.0221     0.0012 </r>
       <r>    -7.1412     0.0349     0.0024 </r>
       <r>    -7.0996     0.0507     0.0041 </r>
       <r>    -7.0581     0.0694     0.0066 </r>
       <r>    -7.0165     0.0910     0.0099 </r>
       <r>    -6.9750     0.1156     0.0142 </r>
       <r>    -6.9334     0.1431     0.0196 </r>
       <r>    -6.8918     0.1735     0.0262 </r>
       <r>    -6.8503     0.2069     0.0341 </r>
       <r>    -6.8087     0.2432     0.0434 </r>
       <r>    -6.7671     0.2824     0.0543 </r>
       <r>    -6.7256     0.3246     0.0669 </r>
       <r>    -6.6840     0.3697     0.0813 </r>
       <r>    -6.6425     0.4177     0.0977 </r>
       <r>    -6.6009     0.5298     0.1171 </r>
       <r>    -6.5593     0.6544     0.1417 </r>
       <r>    -6.5178     0.7726     0.1714 </r>
       <r>    -6.4762     0.8845     0.2059 </r>
       <r>    -6.4346     0.9901     0.2448 </r>
       <r>    -6.3931     1.0894     0.2881 </r>
       <r>    -6.3515     1.1823     0.3353 </r>
       <r>    -6.3099     1.2689     0.3863 </r>
       <r>    -6.2684     1.3492     0.4407 </r>
       <r>    -6.2268     1.4232     0.4983 </r>
       <r>    -6.1853     1.4908     0.5589 </r>
       <r>    -6.1437     1.5522     0.6222 </r>
       <r>    -6.1021     1.6071     0.6879 </r>
       <r>    -6.0606     1.6558     0.7557 </r>
       <r>    -6.0190     1.6982     0.8254 </r>
       <r>    -5.9774     1.7342     0.8968 </r>
       <r>    -5.9359     2.4553     0.9773 </r>
       <r>    -5.8943     2.3131     1.0764 </r>
       <r>    -5.8528     2.1745     1.1696 </r>
       <r>    -5.8112     2.0396     1.2572 </r>
       <r>    -5.7696     1.9085     1.3392 </r>
       <r>    -5.7281     1.7810     1.4159 </r>
       <r>    -5.6865     1.6571     1.4873 </r>
       <r>    -5.6449     1.5370     1.5537 </r>
       <r>    -5.6034     1.4206     1.6151 </r>
       <r>    -5.5618     1.3078     1.6718 </r>
       <r>    -5.5203     1.1987     1.7239 </r>
       <r>    -5.4787     1.0934     1.7715 </r>
       <r>    -5.4371     0.9917     1.8148 </r>
       <r>    -5.3956     0.8937     1.8540 </r>
       <r>    -5.3540     0.7993     1.8892 </r>
       <r>    -5.3124     0.7087     1.9205 </r>
       <r>    -5.2709     0.0000     2.0000 </r>
       <r>    -5.2293     0.0000     2.0000 </r>
       <r>    -5.1878     0.0000     2.0000 </r>
       <r>    -5.1462     0.0000     2.0000 </r>
       <r>    -5.1046     0.0000     2.0000 </r>
       <r>    -5.0631     0.0000     2.0000 </r>
       <r>    -5.0215     0.0000     2.0000 </r>
       <r>    -4.9799     0.0000     2.0000 </r>
       <r>    -4.9384     0.0000     2.0000 </r>
       <r>    -4.8968     0.0000     2.0000 </r>
       <r>    -4.8552     0.0000     2.0000 </r>
       <r>    -4.8137     0.0000     2.0000 </r>
       <r>    -4.7721     0.0000     2.0000 </r>
       <r>    -4.7306     0.0000     2.0000 </r>
       <r>    -4.6890     0.0000     2.0000 </r>
       <r>    -4.6474     0.0000     2.0000 </r>
       <r>    -4.6059     0.0000     2.0000 </r>
       <r>    -4.5643     0.2522     2.0050 </r>
       <r>    -4.5227     0.5080     2.0208 </r>
       <r>    -4.4812     0.7506     2.0470 </r>
       <r>    -4.4396     0.9801     2.0830 </r>
       <r>    -4.3981     1.1964     2.1283 </r>
       <r>    -4.3565     1.3995     2.1823 </r>
       <r>    -4.3149     1.5895     2.2444 </r>
       <r>    -4.2734     1.7663     2.3142 </r>
       <r>    -4.2318     1.9299     2.3911 </r>
       <r>    -4.1902     2.0803     2.4745 </r>
       <r>    -4.1487     2.2176     2.5638 </r>
       <r>    -4.1071     2.3417     2.6586 </r>
       <r>    -4.0656     2.4527     2.7583 </r>
       <r>    -4.0240     6.9171     2.9265 </r>
       <r>    -3.9824     6.5213     3.2058 </r>
       <r>    -3.9409     6.1288     3.4687 </r>
       <r>    -3.8993     5.7399     3.7153 </r>
       <r>    -3.8577     5.3544     3.9458 </r>
       <r>    -3.8162     4.9723     4.1604 </r>
       <r>    -3.7746     4.5938     4.3592 </r>
       <r>    -3.7331     4.2187     4.5423 </r>
       <r>    -3.6915     3.8470     4.7099 </r>
       <r>    -3.6499     1.7925     5.0127 </r>
       <r>    -3.6084     1.8201     5.0878 </r>
       <r>    -3.5668     1.8497     5.1640 </r>
       <r>    -3.5252     1.8812     5.2415 </r>
       <r>    -3.4837     1.9146     5.3204 </r>
       <r>    -3.4421     1.9499     5.4007 </r>
       <r>    -3.4005     1.9872     5.4825 </r>
       <r>    -3.3590     2.0264     5.5659 </r>
       <r>    -3.3174     2.0675     5.6510 </r>
       <r>    -3.2759     2.1106     5.7378 </r>
       <r>    -3.2343     2.1556     5.8265 </r>
       <r>    -3.1927     2.2025     5.9170 </r>
       <r>    -3.1512     2.2513     6.0096 </r>
       <r>    -3.1096     2.3021     6.1042 </r>
       <r>    -3.0680     2.3548     6.2010 </r>
       <r>    -3.0265     2.4095     6.3000 </r>
       <r>    -2.9849     2.4660     6.4013 </r>
       <r>    -2.9434     2.5245     6.5050 </r>
       <r>    -2.9018     2.5850     6.6112 </r>
       <r>    -2.8602     2.6473     6.7199 </r>
       <r>    -2.8187     2.7116     6.8312 </r>
       <r>    -2.7771     2.6075     6.9450 </r>
       <r>    -2.7355     2.5602     7.0524 </r>
       <r>    -2.6940     2.5037     7.1577 </r>
       <r>    -2.6524     2.4379     7.2604 </r>
       <r>    -2.6109     2.3629     7.3602 </r>
       <r>    -2.5693     2.2786     7.4567 </r>
       <r>    -2.5277     2.1850     7.5495 </r>
       <r>    -2.4862     2.0821     7.6382 </r>
       <r>    -2.4446     1.9700     7.7224 </r>
       <r>    -2.4030     1.8486     7.8018 </r>
       <r>    -2.3615     1.6613     7.8753 </r>
       <r>    -2.3199     1.3052     7.9375 </r>
       <r>    -2.2784     0.7779     7.9814 </r>
       <r>    -2.2368     0.0796     7.9998 </r>
       <r>    -2.1952     0.0000     8.0000 </r>
       <r>    -2.1537     0.0000     8.0000 </r>
       <r>    -2.1121     0.0000     8.0000 </r>
       <r>    -2.0705     0.0000     8.0000 </r>
       <r>    -2.0290     0.0000     8.0000 </r>
       <r>    -1.9874     0.0000     8.0000 </r>
       <r>    -1.9458     0.0000     8.0000 </r>
       <r>    -1.9043     0.0000     8.0000 </r>
       <r>    -1.8627     0.0000     8.0000 </r>
       <r>    -1.8212     0.0000     8.0000 </r>
       <r>    -1.7796     0.0000     8.0000 </r>
       <r>    -1.7380     0.0000     8.0000 </r>
       <r>    -1.6965     0.0000     8.0000 </r>
       <r>    -1.6549     0.0000     8.0000 </r>
       <r>    -1.6133     0.0000     8.0000 </r>
       <r>    -1.5718     0.0000     8.0000 </r>
       <r>    -1.5302     0.0000     8.0000 </r>
       <r>    -1.4887     0.0000     8.0000 </r>
       <r>    -1.4471     0.0000     8.0000 </r>
       <r>    -1.4055     0.0000     8.0000 </r>
       <r>    -1.3640     0.0000     8.0000 </r>
       <r>    -1.3224     0.0000     8.0000 </r>
       <r>    -1.2808     0.0000     8.0000 </r>
       <r>    -1.2393     0.0000     8.0000 </r>
       <r>    -1.1977     0.0000     8.0000 </r>
       <r>    -1.1562     0.0000     8.0000 </r>
       <r>    -1.1146     0.0000     8.0000 </r>
       <r>    -1.0730     0.0000     8.0000 </r>
       <r>    -1.0315     0.0000     8.0000 </r>
       <r>    -0.9899     0.0000     8.0000 </r>
       <r>    -0.9483     0.0000     8.0000 </r>
       <r>    -0.9068     0.0000     8.0000 </r>
       <r>    -0.8652     0.0000     8.0000 </r>
       <r>    -0.8237     0.0000     8.0000 </r>
       <r>    -0.7821     0.0000     8.0000 </r>
       <r>    -0.7405     0.0000     8.0000 </r>
       <r>    -0.6990     0.0000     8.0000 </r>
       <r>    -0.6574     0.0000     8.0000 </r>
       <r>    -0.6158     0.0000     8.0000 </r>
       <r>    -0.5743     0.0000     8.0000 </r>
       <r>    -0.5327     0.0000     8.0000 </r>
       <r>    -0.4911     0.0000     8.0000 </r>
       <r>    -0.4496     0.0000     8.0000 </r>
       <r>    -0.4080     0.0000     8.0000 </r>
       <r>    -0.3665     0.0000     8.0000 </r>
       <r>    -0.3249     0.0000     8.0000 </r>
       <r>    -0.2833     0.0000     8.0000 </r>
       <r>    -0.2418     0.0000     8.0000 </r>
       <r>    -0.2002     0.0000     8.0000 </r>
       <r>    -0.1586     0.0000     8.0000 </r>
       <r>    -0.1171     0.0000     8.0000 </r>
       <r>    -0.0755     0.0000     8.0000 </r>
       <r>    -0.0340     0.0000     8.0000 </r>
       <r>     0.0076     0.0000     8.0000 </r>
       <r>     0.0492     0.0000     8.0000 </r>
       <r>     0.0907     0.0000     8.0000 </r>
       <r>     0.1323     0.0000     8.0000 </r>
       <r>     0.1739     0.0000     8.0000 </r>
       <r>     0.2154     0.0167     8.0001 </r>
       <r>     0.2570     1.3719     8.2449 </r>
       <r>     0.2985     1.7528     8.3098 </r>
       <r>     0.3401     2.1331     8.3906 </r>
       <r>     0.3817     2.5126     8.4871 </r>
       <r>     0.4232     2.8913     8.5995 </r>
       <r>     0.4648     3.2694     8.7275 </r>
       <r>     0.5064     3.6467     8.8712 </r>
       <r>     0.5479     4.0232     9.0306 </r>
       <r>     0.5895     4.3991     9.2056 </r>
       <r>     0.6310     4.7742     9.3963 </r>
       <r>     0.6726     5.1486     9.6025 </r>
       <r>     0.7142     5.5846     9.8251 </r>
       <r>     0.7557     5.9135    10.0647 </r>
       <r>     0.7973     6.0455    10.3139 </r>
       <r>     0.8389     5.9806    10.5645 </r>
       <r>     0.8804     5.7188    10.8084 </r>
       <r>     0.9220     5.2601    11.0372 </r>
       <r>     0.9636     1.9433    11.1819 </r>
       <r>     1.0051     1.9619    11.2631 </r>
       <r>     1.0467     1.9791    11.3450 </r>
       <r>     1.0882     1.9950    11.4276 </r>
       <r>     1.1298     2.0096    11.5108 </r>
       <r>     1.1714     2.0228    11.5946 </r>
       <r>     1.2129     2.0347    11.6789 </r>
       <r>     1.2545     2.0453    11.7637 </r>
       <r>     1.2961     2.0545    11.8489 </r>
       <r>     1.3376     2.0624    11.9345 </r>
       <r>     1.3792     2.0690    12.0204 </r>
       <r>     1.4207     2.0742    12.1065 </r>
       <r>     1.4623     2.0781    12.1928 </r>
       <r>     1.5039     2.0807    12.2792 </r>
       <r>     1.5454     2.0819    12.3657 </r>
       <r>     1.5870     2.0818    12.4522 </r>
       <r>     1.6286     2.0804    12.5387 </r>
       <r>     1.6701     2.0776    12.6251 </r>
       <r>     1.7117     2.0735    12.7114 </r>
       <r>     1.7532     2.0681    12.7975 </r>
       <r>     1.7948     2.0613    12.8833 </r>
       <r>     1.8364     2.8864    13.0597 </r>
       <r>     1.8779     2.9768    13.1815 </r>
       <r>     1.9195     3.0693    13.3072 </r>
       <r>     1.9611     3.1638    13.4367 </r>
       <r>     2.0026     3.2604    13.5702 </r>
       <r>     2.0442     2.5317    13.6856 </r>
       <r>     2.0857     2.6355    13.7930 </r>
       <r>     2.1273     2.7383    13.9046 </r>
       <r>     2.1689     2.8400    14.0206 </r>
       <r>     2.2104     2.9406    14.1407 </r>
       <r>     2.2520     3.0402    14.2650 </r>
       <r>     2.2936     3.1386    14.3934 </r>
       <r>     2.3351     3.2360    14.5259 </r>
       <r>     2.3767     3.3323    14.6624 </r>
       <r>     2.4183     2.1177    14.7581 </r>
       <r>     2.4598     2.0452    14.8446 </r>
       <r>     2.5014     1.9668    14.9280 </r>
       <r>     2.5429     1.8825    15.0080 </r>
       <r>     2.5845     1.7922    15.0844 </r>
       <r>     2.6261     1.6960    15.1569 </r>
       <r>     2.6676     1.5939    15.2253 </r>
       <r>     2.7092     1.4859    15.2893 </r>
       <r>     2.7508     1.3719    15.3487 </r>
       <r>     2.7923     1.2520    15.4033 </r>
       <r>     2.8339     1.1262    15.4527 </r>
       <r>     2.8754     0.9945    15.4968 </r>
       <r>     2.9170     0.9029    15.5357 </r>
       <r>     2.9586     0.8662    15.5725 </r>
       <r>     3.0001     0.8280    15.6077 </r>
       <r>     3.0417     0.7884    15.6413 </r>
       <r>     3.0833     0.7474    15.6732 </r>
       <r>     3.1248     0.7049    15.7034 </r>
       <r>     3.1664     0.6609    15.7318 </r>
       <r>     3.2079     0.6155    15.7583 </r>
       <r>     3.2495     0.5687    15.7830 </r>
       <r>     3.2911     0.5203    15.8056 </r>
       <r>     3.3326     0.4706    15.8262 </r>
       <r>     3.3742     0.4194    15.8447 </r>
       <r>     3.4158     0.3667    15.8610 </r>
       <r>     3.4573     0.3126    15.8751 </r>
       <r>     3.4989     0.3323    15.8872 </r>
       <r>     3.5404     0.7688    15.9103 </r>
       <r>     3.5820     1.1528    15.9504 </r>
       <r>     3.6236     1.7513    16.0065 </r>
       <r>     3.6651     3.2647    16.1116 </r>
       <r>     3.7067     4.5261    16.2744 </r>
       <r>     3.7483     5.5353    16.4843 </r>
       <r>     3.7898     6.2925    16.7310 </r>
       <r>     3.8314     6.7975    17.0039 </r>
       <r>     3.8730     7.0504    17.2926 </r>
       <r>     3.9145     5.6896    17.5462 </r>
       <r>     3.9561     5.6906    17.7829 </r>
       <r>     3.9976     5.6537    18.0187 </r>
       <r>     4.0392     5.5789    18.2523 </r>
       <r>     4.0808     5.2058    18.4757 </r>
       <r>     4.1223     5.0312    18.6884 </r>
       <r>     4.1639     4.8570    18.8939 </r>
       <r>     4.2055     4.6835    19.0922 </r>
       <r>     4.2470     4.5105    19.2832 </r>
       <r>     4.2886     4.3381    19.4671 </r>
       <r>     4.3301     4.1663    19.6439 </r>
       <r>     4.3717     3.9951    19.8135 </r>
       <r>     4.4133     3.8244    19.9760 </r>
       <r>     4.4548     3.6543    20.1314 </r>
       <r>     4.4964     3.4848    20.2797 </r>
       <r>     4.5380     3.3159    20.4211 </r>
       <r>     4.5795     3.1476    20.5554 </r>
       <r>     4.6211     2.9798    20.6827 </r>
       <r>     4.6626     2.8126    20.8031 </r>
       <r>     4.7042     2.6460    20.9165 </r>
       <r>     4.7458     2.4799    21.0230 </r>
       <r>     4.7873     2.3145    21.1227 </r>
       <r>     4.8289     2.1606    21.2156 </r>
       <r>     4.8705     2.0317    21.3026 </r>
       <r>     4.9120     1.9278    21.3848 </r>
       <r>     4.9536     1.8489    21.4632 </r>
       <r>     4.9951     1.7950    21.5389 </r>
       <r>     5.0367     1.7661    21.6128 </r>
       <r>     5.0783     1.7622    21.6860 </r>
       <r>     5.1198     1.7834    21.7596 </r>
       <r>     5.1614     1.8295    21.8346 </r>
       <r>     5.2030     0.8584    22.1183 </r>
       <r>     5.2445     1.0396    22.1577 </r>
       <r>     5.2861     1.2381    22.2050 </r>
       <r>     5.3277     1.4540    22.2609 </r>
       <r>     5.3692     2.0897    22.3272 </r>
       <r>     5.4108     5.0325    22.4782 </r>
       <r>     5.4523     7.1030    22.7334 </r>
       <r>     5.4939     8.3012    23.0565 </r>
       <r>     5.5355     7.3404    23.4104 </r>
       <r>     5.5770     8.2035    23.7388 </r>
       <r>     5.6186     7.9846    24.0752 </r>
       <r>     5.6602     7.7539    24.4023 </r>
       <r>     5.7017     7.5114    24.7196 </r>
       <r>     5.7433     7.2572    25.0266 </r>
       <r>     5.7848     6.9911    25.3227 </r>
       <r>     5.8264     7.8558    25.6453 </r>
       <r>     5.8680     7.6207    25.9670 </r>
       <r>     5.9095     7.3705    26.2785 </r>
       <r>     5.9511     7.1051    26.5794 </r>
       <r>     5.9927     6.8246    26.8690 </r>
       <r>     6.0342     6.5291    27.1465 </r>
       <r>     6.0758     6.2184    27.4115 </r>
       <r>     6.1173     5.8926    27.6632 </r>
       <r>     6.1589     5.2743    27.8992 </r>
       <r>     6.2005     4.1265    28.0944 </r>
       <r>     6.2420     1.8764    28.4140 </r>
       <r>     6.2836     1.8814    28.4921 </r>
       <r>     6.3252     1.8835    28.5703 </r>
       <r>     6.3667     1.8827    28.6486 </r>
       <r>     6.4083     1.8790    28.7268 </r>
       <r>     6.4498     1.8724    28.8048 </r>
       <r>     6.4914     1.8628    28.8824 </r>
       <r>     6.5330     1.8503    28.9596 </r>
       <r>     6.5745     1.8349    29.0362 </r>
       <r>     6.6161     1.8166    29.1121 </r>
       <r>     6.6577     1.7954    29.1871 </r>
       <r>     6.6992     1.7712    29.2613 </r>
       <r>     6.7408     1.7441    29.3343 </r>
       <r>     6.7824     1.7141    29.4062 </r>
       <r>     6.8239     1.6812    29.4768 </r>
       <r>     6.8655     1.7251    29.5465 </r>
       <r>     6.9070     1.9299    29.6224 </r>
       <r>     6.9486     2.1410    29.7070 </r>
       <r>     6.9902     2.3584    29.8005 </r>
       <r>     7.0317     2.5821    29.9031 </r>
       <r>     7.0733     2.8120    30.0152 </r>
       <r>     7.1149     3.6490    30.2897 </r>
       <r>     7.1564     3.7583    30.4438 </r>
       <r>     7.1980     3.8325    30.6016 </r>
       <r>     7.2395     3.8716    30.7619 </r>
       <r>     7.2811     3.8757    30.9230 </r>
       <r>     7.3227     3.8447    31.0835 </r>
       <r>     7.3642     3.7787    31.2421 </r>
       <r>     7.4058     3.6776    31.3972 </r>
       <r>     7.4474     3.5414    31.5473 </r>
       <r>     7.4889     3.3701    31.6911 </r>
       <r>     7.5305     3.1638    31.8270 </r>
       <r>     7.5720     0.3921    31.9507 </r>
       <r>     7.6136     0.3105    31.9653 </r>
       <r>     7.6552     0.2383    31.9766 </r>
       <r>     7.6967     0.1757    31.9852 </r>
       <r>     7.7383     0.1227    31.9914 </r>
       <r>     7.7799     0.0791    31.9955 </r>
       <r>     7.8214     0.0450    31.9981 </r>
       <r>     7.8630     0.0205    31.9994 </r>
       <r>     7.9045     0.0055    31.9999 </r>
       <r>     7.9461     0.0000    32.0000 </r>
       <r>     7.9877     0.0000    32.0000 </r>
       <r>     8.0292     0.0000    32.0000 </r>
       <r>     8.0708     0.0000    32.0000 </r>
       <r>     8.1124     0.0000    32.0000 </r>
       <r>     8.1539     0.0000    32.0000 </r>
       <r>     8.1955     0.0000    32.0000 </r>
       <r>     8.2371     0.0000    32.0000 </r>
       <r>     8.2786     0.0000    32.0000 </r>
       <r>     8.3202     0.0000    32.0000 </r>
       <r>     8.3617     0.0000    32.0000 </r>
       <r>     8.4033     0.0000    32.0000 </r>
       <r>     8.4449     0.0000    32.0000 </r>
       <r>     8.4864     0.0000    32.0000 </r>
       <r>     8.5280     0.0000    32.0000 </r>
       <r>     8.5696     0.0000    32.0000 </r>
       <r>     8.6111     0.0000    32.0000 </r>
       <r>     8.6527     0.0000    32.0000 </r>
       <r>     8.6942     0.0000    32.0000 </r>
       <r>     8.7358     0.0000    32.0000 </r>
       <r>     8.7774     0.0000    32.0000 </r>
       <r>     8.8189     0.0000    32.0000 </r>
       <r>     8.8605     0.0000    32.0000 </r>
       <r>     8.9021     0.0000    32.0000 </r>
       <r>     8.9436     0.0000    32.0000 </r>
       <r>     8.9852     0.0000    32.0000 </r>
       <r>     9.0267     0.0000    32.0000 </r>
       <r>     9.0683     0.0000    32.0000 </r>
       <r>     9.1099     0.0000    32.0000 </r>
       <r>     9.1514     0.0000    32.0000 </r>
       <r>     9.1930     0.0000    32.0000 </r>
       <r>     9.2346     0.0000    32.0000 </r>
       <r>     9.2761     0.0000    32.0000 </r>
       <r>     9.3177     0.0000    32.0000 </r>
       <r>     9.3592     0.0005    32.0000 </r>
       <r>     9.4008     0.0017    32.0000 </r>
       <r>     9.4424     0.0037    32.0002 </r>
       <r>     9.4839     0.0065    32.0004 </r>
       <r>     9.5255     0.0100    32.0007 </r>
       <r>     9.5671     0.0143    32.0012 </r>
       <r>     9.6086     0.0194    32.0019 </r>
       <r>     9.6502     0.0253    32.0028 </r>
       <r>     9.6918     0.0319    32.0040 </r>
       <r>     9.7333     0.0393    32.0055 </r>
       <r>     9.7749     0.0475    32.0073 </r>
       <r>     9.8164     0.0565    32.0095 </r>
       <r>     9.8580     0.0662    32.0120 </r>
       <r>     9.8996     0.0767    32.0150 </r>
       <r>     9.9411     0.0880    32.0184 </r>
       <r>     9.9827     0.1001    32.0223 </r>
       <r>    10.0243     0.1129    32.0267 </r>
       <r>    10.0658     0.1265    32.0317 </r>
       <r>    10.1074     0.1408    32.0372 </r>
       <r>    10.1489     0.1560    32.0434 </r>
       <r>    10.1905     0.1719    32.0502 </r>
       <r>    10.2321     0.1886    32.0577 </r>
       <r>    10.2736     0.2061    32.0659 </r>
       <r>    10.3152     0.2243    32.0749 </r>
       <r>    10.3568     0.2433    32.0846 </r>
       <r>    10.3983     0.2631    32.0951 </r>
       <r>    10.4399     0.2836    32.1065 </r>
       <r>    10.4814     0.3050    32.1187 </r>
       <r>    10.5230     0.3271    32.1318 </r>
       <r>    10.5646     0.3499    32.1459 </r>
       <r>    10.6061     0.3983    32.1614 </r>
       <r>    10.6477     0.4497    32.1790 </r>
       <r>    10.6893     0.5002    32.1987 </r>
       <r>    10.7308     0.5496    32.2205 </r>
       <r>    10.7724     0.5980    32.2444 </r>
       <r>    10.8139     0.6453    32.2702 </r>
       <r>    10.8555     0.6917    32.2980 </r>
       <r>    10.8971     0.7370    32.3277 </r>
       <r>    10.9386     0.7813    32.3593 </r>
       <r>    10.9802     0.8246    32.3927 </r>
       <r>    11.0218     0.8669    32.4278 </r>
       <r>    11.0633     0.9081    32.4647 </r>
       <r>    11.1049     0.9483    32.5033 </r>
       <r>    11.1465     0.9875    32.5435 </r>
       <r>    11.1880     1.0257    32.5854 </r>
       <r>    11.2296     1.0629    32.6288 </r>
       <r>    11.2711     1.0990    32.6737 </r>
       <r>    11.3127     1.1341    32.7201 </r>
       <r>    11.3543     1.1682    32.7680 </r>
       <r>    11.3958     1.2013    32.8172 </r>
       <r>    11.4374     1.2333    32.8678 </r>
       <r>    11.4790     1.2644    32.9197 </r>
       <r>    11.5205     1.2944    32.9729 </r>
       <r>    11.5621     1.3233    33.0273 </r>
       <r>    11.6036     1.3513    33.0829 </r>
       <r>    11.6452     1.3782    33.1396 </r>
       <r>    11.6868     1.4042    33.1974 </r>
       <r>    11.7283     1.4291    33.2563 </r>
       <r>    11.7699     1.9347    33.3274 </r>
       <r>    11.8115     1.8911    33.4069 </r>
       <r>    11.8530     1.8486    33.4846 </r>
       <r>    11.8946     1.8074    33.5605 </r>
       <r>    11.9361     1.8285    33.6352 </r>
       <r>    11.9777     1.9948    33.7147 </r>
       <r>    12.0193     2.1576    33.8010 </r>
       <r>    12.0608     2.3170    33.8940 </r>
       <r>    12.1024     2.4730    33.9935 </r>
       <r>    12.1440     2.6256    34.0995 </r>
       <r>    12.1855     2.7748    34.2117 </r>
       <r>    12.2271     2.9207    34.3301 </r>
       <r>    12.2686     3.0645    34.4545 </r>
       <r>    12.3102     3.2067    34.5848 </r>
       <r>    12.3518     3.3473    34.7210 </r>
       <r>    12.3933     3.4863    34.8631 </r>
       <r>    12.4349     3.6237    35.0108 </r>
       <r>    12.4765     3.7595    35.1643 </r>
       <r>    12.5180     3.8938    35.3233 </r>
       <r>    12.5596     4.0264    35.4879 </r>
       <r>    12.6012     4.1574    35.6580 </r>
       <r>    12.6427     4.2869    35.8335 </r>
       <r>    12.6843     4.4148    36.0143 </r>
       <r>    12.7258     4.5410    36.2004 </r>
       <r>    12.7674    19.0566    36.9664 </r>
       <r>    12.8090    23.5764    37.8545 </r>
       <r>    12.8505     0.2105    38.0445 </r>
       <r>    12.8921     0.2390    38.0538 </r>
       <r>    12.9337     0.2693    38.0644 </r>
       <r>    12.9752     0.3014    38.0762 </r>
       <r>    13.0168     0.3353    38.0895 </r>
       <r>    13.0583     0.3710    38.1041 </r>
       <r>    13.0999     0.4086    38.1203 </r>
       <r>    13.1415     0.4894    38.1389 </r>
       <r>    13.1830     0.5739    38.1610 </r>
       <r>    13.2246     0.6579    38.1866 </r>
       <r>    13.2662     0.7414    38.2157 </r>
       <r>    13.3077     0.8243    38.2482 </r>
       <r>    13.3493     0.9068    38.2842 </r>
       <r>    13.3908     0.9887    38.3236 </r>
       <r>    13.4324     1.0739    38.3664 </r>
       <r>    13.4740     1.1613    38.4129 </r>
       <r>    13.5155     1.5422    38.5425 </r>
       <r>    13.5571     1.5694    38.6072 </r>
       <r>    13.5987     1.5954    38.6730 </r>
       <r>    13.6402     1.6204    38.7398 </r>
       <r>    13.6818     1.6444    38.8077 </r>
       <r>    13.7233     1.6672    38.8765 </r>
       <r>    13.7649     1.6890    38.9462 </r>
       <r>    13.8065     1.7096    39.0169 </r>
       <r>    13.8480     1.7292    39.0883 </r>
       <r>    13.8896     1.7478    39.1606 </r>
       <r>    13.9312     1.7652    39.2336 </r>
       <r>    13.9727     1.7815    39.3073 </r>
       <r>    14.0143     1.7969    39.3817 </r>
       <r>    14.0559     1.8124    39.4567 </r>
       <r>    14.0974     1.8285    39.5323 </r>
       <r>    14.1390     1.8451    39.6087 </r>
       <r>    14.1805     1.8623    39.6857 </r>
       <r>    14.2221     1.8802    39.7635 </r>
       <r>    14.2637     1.8986    39.8420 </r>
       <r>    14.3052     1.9175    39.9213 </r>
       <r>    14.3468     1.9371    40.0014 </r>
       <r>    14.3884     1.9572    40.0824 </r>
       <r>    14.4299     1.9779    40.1641 </r>
       <r>    14.4715     1.9992    40.2468 </r>
       <r>    14.5130     2.0211    40.3303 </r>
       <r>    14.5546     2.0436    40.4148 </r>
       <r>    14.5962     2.0666    40.5002 </r>
       <r>    14.6377     2.0902    40.5866 </r>
       <r>    14.6793     2.1144    40.6740 </r>
       <r>    14.7209     2.1392    40.7624 </r>
       <r>    14.7624     2.1646    40.8518 </r>
       <r>    14.8040     2.1905    40.9423 </r>
       <r>    14.8455     2.2170    41.0339 </r>
       <r>    14.8871     2.2441    41.1266 </r>
       <r>    14.9287     1.4094    41.1845 </r>
       <r>    14.9702     1.5969    41.2453 </r>
       <r>    15.0118     2.0041    41.3202 </r>
       <r>    15.0534     2.3995    41.4117 </r>
       <r>    15.0949     2.7830    41.5195 </r>
       <r>    15.1365     3.1546    41.6429 </r>
       <r>    15.1780     4.2163    41.7968 </r>
       <r>    15.2196     4.7796    41.9838 </r>
       <r>    15.2612     5.3225    42.1938 </r>
       <r>    15.3027     5.8449    42.4260 </r>
       <r>    15.3443     6.3469    42.6794 </r>
       <r>    15.3859     6.8283    42.9533 </r>
       <r>    15.4274    13.3824    43.4594 </r>
       <r>    15.4690    12.2454    43.9919 </r>
       <r>    15.5106    11.1429    44.4778 </r>
       <r>    15.5521    13.5187    45.1526 </r>
       <r>    15.5937    14.8353    45.7430 </r>
       <r>    15.6352    15.7921    46.4630 </r>
       <r>    15.6768     5.0828    47.1064 </r>
       <r>    15.7184     5.2432    47.3211 </r>
       <r>    15.7599     5.3705    47.5418 </r>
       <r>    15.8015     5.4645    47.7671 </r>
       <r>    15.8431     5.5253    47.9956 </r>
       <r>    15.8846     5.5528    48.2259 </r>
       <r>    15.9262     1.5087    48.4130 </r>
       <r>    15.9677     1.6262    48.4781 </r>
       <r>    16.0093     1.7454    48.5482 </r>
       <r>    16.0509     1.8661    48.6232 </r>
       <r>    16.0924     1.9885    48.7033 </r>
       <r>    16.1340     2.1125    48.7886 </r>
       <r>    16.1756     2.2380    48.8790 </r>
       <r>    16.2171     2.3652    48.9746 </r>
       <r>    16.2587     2.4940    49.0756 </r>
       <r>    16.3002     2.6244    49.1820 </r>
       <r>    16.3418     2.7564    49.2938 </r>
       <r>    16.3834     2.8900    49.4111 </r>
       <r>    16.4249     6.6454    49.5931 </r>
       <r>    16.4665     6.9110    49.8753 </r>
       <r>    16.5081     7.0483    50.1658 </r>
       <r>    16.5496     7.0575    50.4594 </r>
       <r>    16.5912     6.9384    50.7507 </r>
       <r>    16.6327     6.6911    51.0344 </r>
       <r>    16.6743     6.3156    51.3051 </r>
       <r>    16.7159     5.8119    51.5576 </r>
       <r>    16.7574    16.8646    52.3148 </r>
       <r>    16.7990     5.0869    52.8986 </r>
       <r>    16.8406     4.1602    53.0908 </r>
       <r>    16.8821     3.5492    53.2462 </r>
       <r>    16.9237     3.8596    53.4001 </r>
       <r>    16.9653     4.1795    53.5671 </r>
       <r>    17.0068     4.5090    53.7477 </r>
       <r>    17.0484     1.8225    53.8558 </r>
       <r>    17.0899     1.7959    53.9309 </r>
       <r>    17.1315     1.7686    54.0050 </r>
       <r>    17.1731     1.7406    54.0780 </r>
       <r>    17.2146     1.7118    54.1497 </r>
       <r>    17.2562     1.6824    54.2202 </r>
       <r>    17.2978     1.6524    54.2895 </r>
       <r>    17.3393     1.6216    54.3576 </r>
       <r>    17.3809     1.5901    54.4243 </r>
       <r>    17.4224     1.5579    54.4898 </r>
       <r>    17.4640     1.5251    54.5538 </r>
       <r>    17.5056     1.4915    54.6165 </r>
       <r>    17.5471     1.4573    54.6778 </r>
       <r>    17.5887     1.4224    54.7376 </r>
       <r>    17.6303     1.3867    54.7960 </r>
       <r>    17.6718     1.3504    54.8529 </r>
       <r>    17.7134     1.3134    54.9083 </r>
       <r>    17.7549     1.2757    54.9621 </r>
       <r>    17.7965     1.8141    55.1066 </r>
       <r>    17.8381     1.8496    55.1828 </r>
       <r>    17.8796     1.8870    55.2604 </r>
       <r>    17.9212     1.9264    55.3397 </r>
       <r>    17.9628     1.9678    55.4206 </r>
       <r>    18.0043     2.0112    55.5033 </r>
       <r>    18.0459     2.0567    55.5878 </r>
       <r>    18.0874     2.1041    55.6743 </r>
       <r>    18.1290     2.1535    55.7627 </r>
       <r>    18.1706     2.2049    55.8533 </r>
       <r>    18.2121     2.2584    55.9460 </r>
       <r>    18.2537     2.3138    56.0410 </r>
       <r>    18.2953     2.3712    56.1384 </r>
       <r>    18.3368     2.4306    56.2382 </r>
       <r>    18.3784     2.4921    56.3405 </r>
       <r>    18.4200     2.5555    56.4454 </r>
       <r>    18.4615     2.6209    56.5529 </r>
       <r>    18.5031     4.3146    56.9486 </r>
       <r>    18.5446     4.5410    57.1326 </r>
       <r>    18.5862     4.7742    57.3262 </r>
       <r>    18.6278     9.3841    57.5648 </r>
       <r>    18.6693     7.9040    57.9399 </r>
       <r>    18.7109     2.9857    58.1613 </r>
       <r>    18.7525     3.1526    58.2888 </r>
       <r>    18.7940     3.3245    58.4234 </r>
       <r>    18.8356     3.5013    58.5652 </r>
       <r>    18.8771     3.6832    58.7145 </r>
       <r>    18.9187     3.8700    58.8715 </r>
       <r>    18.9603     4.0618    59.0363 </r>
       <r>    19.0018     4.2585    59.2092 </r>
       <r>    19.0434     4.4602    59.3903 </r>
       <r>    19.0850     4.6669    59.5800 </r>
       <r>    19.1265     4.8786    59.7784 </r>
       <r>    19.1681     5.0953    59.9856 </r>
       <r>    19.2096     5.3169    60.2020 </r>
       <r>    19.2512     5.5435    60.4276 </r>
       <r>    19.2928     5.2793    60.6544 </r>
       <r>    19.3343     5.3858    60.8760 </r>
       <r>    19.3759     5.1571    61.0948 </r>
       <r>    19.4175     5.1328    61.3087 </r>
       <r>    19.4590     5.0928    61.5212 </r>
       <r>    19.5006     6.2605    61.7381 </r>
       <r>    19.5421     6.2029    61.9973 </r>
       <r>    19.5837     6.0905    62.2529 </r>
       <r>    19.6253     5.9232    62.5028 </r>
       <r>    19.6668     5.7012    62.7446 </r>
       <r>    19.7084     5.4243    62.9759 </r>
       <r>    19.7500     5.0926    63.1947 </r>
       <r>    19.7915     4.7062    63.3985 </r>
       <r>    19.8331     4.2649    63.5851 </r>
       <r>    19.8747     3.7687    63.7523 </r>
       <r>    19.9162     3.2178    63.8977 </r>
       <r>    19.9578     2.6234    64.0190 </r>
       <r>    19.9993     2.2588    64.1206 </r>
       <r>    20.0409     2.0235    64.2079 </r>
       <r>    20.0825     1.9596    64.2907 </r>
       <r>    20.1240     1.8968    64.3708 </r>
       <r>    20.1656     1.8350    64.4484 </r>
       <r>    20.2072     1.7742    64.5234 </r>
       <r>    20.2487     1.7145    64.5959 </r>
       <r>    20.2903     1.6559    64.6659 </r>
       <r>    20.3318     1.5983    64.7335 </r>
       <r>    20.3734     1.5418    64.7988 </r>
       <r>    20.4150     1.4863    64.8617 </r>
       <r>    20.4565     1.4318    64.9223 </r>
       <r>    20.4981     1.3784    64.9807 </r>
       <r>    20.5397     1.3260    65.0369 </r>
       <r>    20.5812     1.2747    65.0910 </r>
       <r>    20.6228     1.2245    65.1429 </r>
       <r>    20.6643     1.1752    65.1928 </r>
       <r>    20.7059     6.3306    65.2963 </r>
       <r>    20.7475     6.6482    65.5735 </r>
       <r>    20.7890     4.8117    65.8191 </r>
       <r>    20.8306     3.1924    65.9692 </r>
       <r>    20.8722     3.0736    66.0994 </r>
       <r>    20.9137     2.9561    66.2247 </r>
       <r>    20.9553     2.8400    66.3452 </r>
       <r>    20.9968     2.7250    66.4608 </r>
       <r>    21.0384     2.6114    66.5717 </r>
       <r>    21.0800     2.4991    66.6779 </r>
       <r>    21.1215     2.3880    66.7795 </r>
       <r>    21.1631     5.7560    66.9938 </r>
       <r>    21.2047     5.8403    67.2349 </r>
       <r>    21.2462     5.9102    67.4791 </r>
       <r>    21.2878     5.9656    67.7260 </r>
       <r>    21.3294     6.0065    67.9748 </r>
       <r>    21.3709     6.0329    68.2251 </r>
       <r>    21.4125     6.0448    68.4761 </r>
       <r>    21.4540     6.0422    68.7273 </r>
       <r>    21.4956     6.0251    68.9782 </r>
       <r>    21.5372     5.9936    69.2280 </r>
       <r>    21.5787     5.9475    69.4762 </r>
       <r>    21.6203     5.8870    69.7222 </r>
       <r>    21.6619     5.8119    69.9653 </r>
       <r>    21.7034     5.7224    70.2051 </r>
       <r>    21.7450     5.6184    70.4408 </r>
       <r>    21.7865     4.2232    70.8941 </r>
       <r>    21.8281     3.8862    71.0627 </r>
       <r>    21.8697     3.5387    71.2170 </r>
       <r>    21.9112     3.1804    71.3567 </r>
       <r>    21.9528     2.8112    71.4812 </r>
       <r>    21.9944     2.4163    71.5900 </r>
       <r>    22.0359     2.0137    71.6820 </r>
       <r>    22.0775     1.6128    71.7574 </r>
       <r>    22.1190     1.2138    71.8161 </r>
       <r>    22.1606     2.9788    72.0743 </r>
       <r>    22.2022     3.4077    72.2068 </r>
       <r>    22.2437     3.8921    72.3583 </r>
       <r>    22.2853     4.4320    72.5311 </r>
       <r>    22.3269     5.0275    72.7275 </r>
       <r>    22.3684     2.1779    72.9063 </r>
       <r>    22.4100     2.1336    72.9959 </r>
       <r>    22.4515     3.6227    73.1290 </r>
       <r>    22.4931     3.5621    73.2783 </r>
       <r>    22.5347     3.4960    73.4250 </r>
       <r>    22.5762     3.4242    73.5688 </r>
       <r>    22.6178     3.3431    73.7095 </r>
       <r>    22.6594     3.2518    73.8466 </r>
       <r>    22.7009     3.1500    73.9797 </r>
       <r>    22.7425     3.0379    74.1083 </r>
       <r>    22.7841     2.9154    74.2320 </r>
       <r>    22.8256     2.7825    74.3505 </r>
       <r>    22.8672     2.6392    74.4632 </r>
       <r>    22.9087     2.4856    74.5697 </r>
       <r>    22.9503     2.3216    74.6697 </r>
       <r>    22.9919     2.1473    74.7626 </r>
       <r>    23.0334     1.9626    74.8480 </r>
       <r>    23.0750     1.0776    74.9879 </r>
       <r>    23.1166     0.8946    75.0289 </r>
       <r>    23.1581     0.7019    75.0621 </r>
       <r>    23.1997     0.6255    75.0887 </r>
       <r>    23.2412     0.6237    75.1147 </r>
       <r>    23.2828     0.6215    75.1406 </r>
       <r>    23.3244     0.6190    75.1664 </r>
       <r>    23.3659     0.6160    75.1920 </r>
       <r>    23.4075     0.6128    75.2176 </r>
       <r>    23.4491     0.6091    75.2430 </r>
       <r>    23.4906     0.6050    75.2682 </r>
       <r>    23.5322     0.6006    75.2932 </r>
       <r>    23.5737     0.5958    75.3181 </r>
       <r>    23.6153     0.5906    75.3428 </r>
       <r>    23.6569     0.5851    75.3672 </r>
       <r>    23.6984     0.5792    75.3914 </r>
       <r>    23.7400     0.5729    75.4153 </r>
       <r>    23.7816     0.5662    75.4390 </r>
       <r>    23.8231     0.5591    75.4624 </r>
       <r>    23.8647     0.5517    75.4855 </r>
       <r>    23.9062     0.5439    75.5083 </r>
       <r>    23.9478     0.5357    75.5307 </r>
       <r>    23.9894     0.5272    75.5528 </r>
       <r>    24.0309     0.5183    75.5745 </r>
       <r>    24.0725     0.5090    75.5959 </r>
       <r>    24.1141     0.4993    75.6168 </r>
       <r>    24.1556     0.4892    75.6374 </r>
       <r>    24.1972     0.4788    75.6575 </r>
       <r>    24.2388     0.4681    75.6772 </r>
       <r>    24.2803     0.4570    75.6964 </r>
       <r>    24.3219     0.4456    75.7151 </r>
       <r>    24.3634     0.4339    75.7334 </r>
       <r>    24.4050     0.4220    75.7512 </r>
       <r>    24.4466     0.4097    75.7685 </r>
       <r>    24.4881     0.3971    75.7853 </r>
       <r>    24.5297     0.3842    75.8015 </r>
       <r>    24.5713     0.3710    75.8172 </r>
       <r>    24.6128     4.8517    75.8966 </r>
       <r>    24.6544     5.0449    76.1023 </r>
       <r>    24.6959     5.2304    76.3158 </r>
       <r>    24.7375     5.4080    76.5369 </r>
       <r>    24.7791     5.5778    76.7653 </r>
       <r>    24.8206     5.7397    77.0005 </r>
       <r>    24.8622     5.8939    77.2423 </r>
       <r>    24.9038     6.0402    77.4903 </r>
       <r>    24.9453     6.1787    77.7443 </r>
       <r>    24.9869     6.3094    78.0038 </r>
       <r>    25.0284     6.4323    78.2686 </r>
       <r>    25.0700     6.5474    78.5384 </r>
       <r>    25.1116     6.6370    78.8127 </r>
       <r>    25.1531     4.8280    79.2448 </r>
       <r>    25.1947     4.4088    79.4368 </r>
       <r>    25.2363     3.9818    79.6112 </r>
       <r>    25.2778     3.5472    79.7677 </r>
       <r>    25.3194     3.1049    79.9059 </r>
       <r>    25.3609     2.6549    80.0257 </r>
       <r>    25.4025     2.1973    80.1265 </r>
       <r>    25.4441     1.7320    80.2082 </r>
       <r>    25.4856     1.2590    80.2704 </r>
       <r>    25.5272     0.8183    80.3130 </r>
       <r>    25.5688     0.8669    80.3481 </r>
       <r>    25.6103     0.9155    80.3851 </r>
       <r>    25.6519     0.9642    80.4242 </r>
       <r>    25.6935     1.0128    80.4652 </r>
       <r>    25.7350     1.0614    80.5083 </r>
       <r>    25.7766     1.1100    80.5535 </r>
       <r>    25.8181     1.1586    80.6006 </r>
       <r>    25.8597     1.2072    80.6498 </r>
       <r>    25.9013     1.2559    80.7010 </r>
       <r>    25.9428     1.3045    80.7542 </r>
       <r>    25.9844     1.3531    80.8094 </r>
       <r>    26.0260     2.6144    81.1249 </r>
       <r>    26.0675     2.8594    81.2387 </r>
       <r>    26.1091     3.1146    81.3628 </r>
       <r>    26.1506     3.3798    81.4977 </r>
       <r>    26.1922     3.6551    81.6439 </r>
       <r>    26.2338     3.9406    81.8017 </r>
       <r>    26.2753     4.2361    81.9716 </r>
       <r>    26.3169     4.5418    82.1539 </r>
       <r>    26.3585     4.8575    82.3492 </r>
       <r>    26.4000     5.1834    82.5579 </r>
       <r>    26.4416     5.5193    82.7803 </r>
       <r>    26.4831    10.0357    83.1469 </r>
       <r>    26.5247     7.3340    83.5207 </r>
       <r>    26.5663     7.0693    83.7656 </r>
       <r>    26.6078     9.2134    84.1207 </r>
       <r>    26.6494     1.5695    84.3893 </r>
       <r>    26.6910     1.5890    84.4549 </r>
       <r>    26.7325     1.6107    84.5214 </r>
       <r>    26.7741     1.6365    84.5889 </r>
       <r>    26.8156     1.6724    84.6576 </r>
       <r>    26.8572     1.7065    84.7279 </r>
       <r>    26.8988     1.7389    84.7995 </r>
       <r>    26.9403     1.7696    84.8724 </r>
       <r>    26.9819     1.7985    84.9465 </r>
       <r>    27.0235     1.8257    85.0219 </r>
       <r>    27.0650     1.8511    85.0983 </r>
       <r>    27.1066     1.8748    85.1757 </r>
       <r>    27.1482     1.8967    85.2541 </r>
       <r>    27.1897     1.9169    85.3334 </r>
       <r>    27.2313     1.9354    85.4134 </r>
       <r>    27.2728     1.9521    85.4942 </r>
       <r>    27.3144     1.9670    85.5757 </r>
       <r>    27.3560     1.9802    85.6577 </r>
       <r>    27.3975     1.9917    85.7403 </r>
       <r>    27.4391     2.0014    85.8232 </r>
       <r>    27.4807     2.0094    85.9066 </r>
       <r>    27.5222     2.0157    85.9903 </r>
       <r>    27.5638     2.0202    86.0741 </r>
       <r>    27.6053     2.0229    86.1582 </r>
       <r>    27.6469     2.0239    86.2423 </r>
       <r>    27.6885     2.0232    86.3264 </r>
       <r>    27.7300     2.0207    86.4104 </r>
       <r>    27.7716     2.0164    86.4943 </r>
       <r>    27.8132     2.0105    86.5780 </r>
       <r>    27.8547     2.0028    86.6614 </r>
       <r>    27.8963     1.9933    86.7445 </r>
       <r>    27.9378     2.0167    86.8274 </r>
       <r>    27.9794     2.2161    86.9147 </r>
       <r>    28.0210     2.6071    87.0142 </r>
       <r>    28.0625     2.9974    87.1324 </r>
       <r>    28.1041     3.1399    87.2602 </r>
       <r>    28.1457     3.2092    87.3924 </r>
       <r>    28.1872     3.2053    87.5259 </r>
       <r>    28.2288     3.1283    87.6578 </r>
       <r>    28.2703     2.9780    87.7849 </r>
       <r>    28.3119     2.7546    87.9043 </r>
       <r>    28.3535     0.0000    88.0000 </r>
       <r>    28.3950     0.0000    88.0000 </r>
       <r>    28.4366     0.0000    88.0000 </r>
       <r>    28.4782     0.0000    88.0000 </r>
       <r>    28.5197     0.0000    88.0000 </r>
       <r>    28.5613     0.0000    88.0000 </r>
       <r>    28.6029     0.0000    88.0000 </r>
       <r>    28.6444     0.0000    88.0000 </r>
       <r>    28.6860     0.0000    88.0000 </r>
       <r>    28.7275     0.0000    88.0000 </r>
       <r>    28.7691     0.0000    88.0000 </r>
       <r>    28.8107     0.0000    88.0000 </r>
       <r>    28.8522     0.8662    88.0047 </r>
       <r>    28.8938     4.3641    88.1125 </r>
       <r>    28.9354     9.1927    88.6576 </r>
       <r>    28.9769     9.9976    89.0570 </r>
       <r>    29.0185    10.6101    89.4860 </r>
       <r>    29.0600    11.0301    89.9363 </r>
       <r>    29.1016    11.2578    90.4002 </r>
       <r>    29.1432    11.2930    90.8695 </r>
       <r>    29.1847    11.1358    91.3363 </r>
       <r>    29.2263    10.7862    91.7925 </r>
       <r>    29.2679    10.2441    92.2302 </r>
       <r>    29.3094     3.3093    92.5100 </r>
       <r>    29.3510     3.3839    92.6490 </r>
       <r>    29.3925     3.4748    92.7915 </r>
       <r>    29.4341     3.5821    92.9381 </r>
       <r>    29.4757     3.6354    93.1430 </r>
       <r>    29.5172     3.6921    93.2952 </r>
       <r>    29.5588     3.7644    93.4501 </r>
       <r>    29.6004     3.8525    93.6084 </r>
       <r>    29.6419     3.9563    93.7706 </r>
       <r>    29.6835     4.0758    93.9375 </r>
       <r>    29.7250     4.2110    94.1096 </r>
       <r>    29.7666     4.3619    94.2877 </r>
       <r>    29.8082     4.5286    94.4724 </r>
       <r>    29.8497     4.7109    94.6644 </r>
       <r>    29.8913     4.9090    94.8642 </r>
       <r>    29.9329     5.0570    95.0721 </r>
       <r>    29.9744     4.9043    95.2802 </r>
       <r>    30.0160     4.9838    95.4915 </r>
       <r>    30.0576     4.4584    95.6895 </r>
       <r>    30.0991     3.4059    95.8548 </r>
       <r>    30.1407     1.8263    95.9654 </r>
       <r>    30.1822     0.0000    96.0000 </r>
       <r>    30.2238     0.0000    96.0000 </r>
       <r>    30.2654     0.0000    96.0000 </r>
       <r>    30.3069     0.0000    96.0000 </r>
       <r>    30.3485     0.0000    96.0000 </r>
       <r>    30.3901     0.0000    96.0000 </r>
       <r>    30.4316     0.0000    96.0000 </r>
       <r>    30.4732     0.0000    96.0000 </r>
       <r>    30.5147     0.0000    96.0000 </r>
       <r>    30.5563     0.0000    96.0000 </r>
       <r>    30.5979     0.0000    96.0000 </r>
       <r>    30.6394     0.0000    96.0000 </r>
       <r>    30.6810     0.0000    96.0000 </r>
       <r>    30.7226     0.0000    96.0000 </r>
       <r>    30.7641     0.0000    96.0000 </r>
       <r>    30.8057     0.0000    96.0000 </r>
       <r>    30.8472     0.0000    96.0000 </r>
       <r>    30.8888     0.0000    96.0000 </r>
       <r>    30.9304     0.0000    96.0000 </r>
       <r>    30.9719     0.0000    96.0000 </r>
       <r>    31.0135     0.0000    96.0000 </r>
       <r>    31.0551     0.0000    96.0000 </r>
       <r>    31.0966     0.0000    96.0000 </r>
       <r>    31.1382     0.0000    96.0000 </r>
       <r>    31.1797     0.0000    96.0000 </r>
       <r>    31.2213     0.0000    96.0000 </r>
       <r>    31.2629     0.0000    96.0000 </r>
       <r>    31.3044     0.0000    96.0000 </r>
       <r>    31.3460     0.0000    96.0000 </r>
       <r>    31.3876     0.0000    96.0000 </r>
       <r>    31.4291     0.0000    96.0000 </r>
       <r>    31.4707     0.0000    96.0000 </r>
       <r>    31.5123     0.0000    96.0000 </r>
       <r>    31.5538     0.0000    96.0000 </r>
       <r>    31.5954     0.0000    96.0000 </r>
       <r>    31.6369     0.0000    96.0000 </r>
       <r>    31.6785     0.0000    96.0000 </r>
       <r>    31.7201     0.0000    96.0000 </r>
       <r>    31.7616     0.0000    96.0000 </r>
       <r>    31.8032     0.0000    96.0000 </r>
       <r>    31.8448     0.0000    96.0000 </r>
       <r>    31.8863     0.0000    96.0000 </r>
       <r>    31.9279     0.0000    96.0000 </r>
       <r>    31.9694     0.0000    96.0000 </r>
       <r>    32.0110     0.0000    96.0000 </r>
       <r>    32.0526     0.0000    96.0000 </r>
       <r>    32.0941     0.0000    96.0000 </r>
       <r>    32.1357     0.0000    96.0000 </r>
       <r>    32.1773     0.0000    96.0000 </r>
      </set>
     </set>
    </array>
   </total>
   <partial>
    <array>
     <dimension dim="1">gridpoints</dimension>
     <dimension dim="2">spin</dimension>
     <dimension dim="3">ion</dimension>
     <field>energy</field>
     <field>  s</field>
     <field> py</field>
     <field> pz</field>
     <field> px</field>
     <field>dxy</field>
     <field>dyz</field>
     <field>dz2</field>
     <field>dxz</field>
     <field>dx2</field>
     <set>
      <set comment="ion 1">
       <set comment="spin 1">
        <r>    -9.3440     0.0000     0.0000     0.0000     0.0000     0.0000     0.0000     0.0000     0.0000     0.0000 </r>
[...]
        <r>  0.0785  0.0174  0.0165  0.0150  0.0000  0.0000  0.0000  0.0000  0.0000 </r>
        <r>  0.0191  0.0033  0.0031  0.0059  0.0000  0.0000  0.0000  0.0000  0.0000 </r>
        <r>  0.0160  0.0078  0.0092  0.0101  0.0000  0.0000  0.0000  0.0000  0.0000 </r>
        <r>  0.0660  0.0302  0.0334  0.0383  0.0000  0.0000  0.0000  0.0000  0.0000 </r>
        <r>  0.0078  0.0015  0.0096  0.0037  0.0000  0.0000  0.0000  0.0000  0.0000 </r>
        <r>  0.0075  0.0108  0.0015  0.0019  0.0000  0.0000  0.0000  0.0000  0.0000 </r>
       </set>
       <set comment="band 25">
        <r>  0.0498  0.0115  0.0108  0.0089  0.0000  0.0000  0.0000  0.0000  0.0000 </r>
        <r>  0.0084  0.0007  0.0018  0.0032  0.0000  0.0000  0.0000  0.0000  0.0000 </r>
        <r>  0.0077  0.0006  0.0017  0.0030  0.0000  0.0000  0.0000  0.0000  0.0000 </r>
        <r>  0.0501  0.0116  0.0107  0.0090  0.0000  0.0000  0.0000  0.0000  0.0000 </r>
        <r>  0.0421  0.0172  0.0271  0.0219  0.0000  0.0000  0.0000  0.0000  0.0000 </r>
        <r>  0.0064  0.0079  0.0042  0.0006  0.0000  0.0000  0.0000  0.0000  0.0000 </r>
        <r>  0.0070  0.0084  0.0044  0.0007  0.0000  0.0000  0.0000  0.0000  0.0000 </r>
        <r>  0.0418  0.0171  0.0267  0.0219  0.0000  0.0000  0.0000  0.0000  0.0000 </r>
       </set>
       <set comment="band 26">
        <r>  0.0000  0.0085  0.0243  0.0058  0.0000  0.0000  0.0000  0.0000  0.0000 </r>
        <r>  0.0000  0.0510  0.0225  0.0058  0.0000  0.0000  0.0000  0.0000  0.0000 </r>
        <r>  0.0000  0.0085  0.0225  0.0094  0.0000  0.0000  0.0000  0.0000  0.0000 </r>
        <r>  0.0000  0.0510  0.0243  0.0094  0.0000  0.0000  0.0000  0.0000  0.0000 </r>
        <r>  0.0000  0.0192  0.0092  0.0036  0.0000  0.0000  0.0000  0.0000  0.0000 </r>
        <r>  0.0000  0.0032  0.0085  0.0036  0.0000  0.0000  0.0000  0.0000  0.0000 </r>
        <r>  0.0000  0.0192  0.0085  0.0022  0.0000  0.0000  0.0000  0.0000  0.0000 </r>
        <r>  0.0000  0.0032  0.0092  0.0022  0.0000  0.0000  0.0000  0.0000  0.0000 </r>
       </set>
       <set comment="band 27">
        <r>  0.0000  0.0077  0.0255  0.0244  0.0000  0.0000  0.0000  0.0000  0.0000 </r>
        <r>  0.0000  0.0005  0.0320  0.0244  0.0000  0.0000  0.0000  0.0000  0.0000 </r>
        <r>  0.0000  0.0077  0.0320  0.0315  0.0000  0.0000  0.0000  0.0000  0.0000 </r>
        <r>  0.0000  0.0005  0.0255  0.0315  0.0000  0.0000  0.0000  0.0000  0.0000 </r>
        <r>  0.0000  0.0002  0.0096  0.0119  0.0000  0.0000  0.0000  0.0000  0.0000 </r>
        <r>  0.0000  0.0029  0.0121  0.0119  0.0000  0.0000  0.0000  0.0000  0.0000 </r>
        <r>  0.0000  0.0002  0.0121  0.0092  0.0000  0.0000  0.0000  0.0000  0.0000 </r>
        <r>  0.0000  0.0029  0.0096  0.0092  0.0000  0.0000  0.0000  0.0000  0.0000 </r>
       </set>
       <set comment="band 28">
        <r>  0.0000  0.0445  0.0110  0.0306  0.0000  0.0000  0.0000  0.0000  0.0000 </r>
        <r>  0.0000  0.0093  0.0063  0.0306  0.0000  0.0000  0.0000  0.0000  0.0000 </r>
        <r>  0.0000  0.0445  0.0063  0.0199  0.0000  0.0000  0.0000  0.0000  0.0000 </r>
        <r>  0.0000  0.0093  0.0110  0.0199  0.0000  0.0000  0.0000  0.0000  0.0000 </r>
        <r>  0.0000  0.0035  0.0041  0.0075  0.0000  0.0000  0.0000  0.0000  0.0000 </r>
        <r>  0.0000  0.0168  0.0024  0.0075  0.0000  0.0000  0.0000  0.0000  0.0000 </r>
        <r>  0.0000  0.0035  0.0024  0.0115  0.0000  0.0000  0.0000  0.0000  0.0000 </r>
        <r>  0.0000  0.0168  0.0041  0.0115  0.0000  0.0000  0.0000  0.0000  0.0000 </r>
       </set>
       <set comment="band 29">
        <r>  0.0080  0.0030  0.0030  0.0030  0.0000  0.0000  0.0000  0.0000  0.0000 </r>
        <r>  0.0080  0.0030  0.0030  0.0030  0.0000  0.0000  0.0000  0.0000  0.0000 </r>
        <r>  0.0080  0.0030  0.0030  0.0030  0.0000  0.0000  0.0000  0.0000  0.0000 </r>
        <r>  0.0080  0.0030  0.0030  0.0030  0.0000  0.0000  0.0000  0.0000  0.0000 </r>
        <r>  0.0088  0.0289  0.0289  0.0289  0.0000  0.0000  0.0000  0.0000  0.0000 </r>
        <r>  0.0088  0.0289  0.0289  0.0289  0.0000  0.0000  0.0000  0.0000  0.0000 </r>
        <r>  0.0088  0.0289  0.0289  0.0289  0.0000  0.0000  0.0000  0.0000  0.0000 </r>
        <r>  0.0088  0.0289  0.0289  0.0289  0.0000  0.0000  0.0000  0.0000  0.0000 </r>
       </set>
       <set comment="band 30">
        <r>  0.0138  0.0108  0.0095  0.0150  0.0000  0.0000  0.0000  0.0000  0.0000 </r>
        <r>  0.0334  0.0286  0.0282  0.0228  0.0000  0.0000  0.0000  0.0000  0.0000 </r>
        <r>  0.0004  0.0013  0.0020  0.0014  0.0000  0.0000  0.0000  0.0000  0.0000 </r>
        <r>  0.0085  0.0053  0.0117  0.0062  0.0000  0.0000  0.0000  0.0000  0.0000 </r>
        <r>  0.0030  0.0516  0.0219  0.0030  0.0000  0.0000  0.0000  0.0000  0.0000 </r>
        <r>  0.0001  0.0205  0.0569  0.0118  0.0000  0.0000  0.0000  0.0000  0.0000 </r>
        <r>  0.0119  0.0064  0.0070  0.0249  0.0000  0.0000  0.0000  0.0000  0.0000 </r>
        <r>  0.0049  0.0027  0.0277  0.0380  0.0000  0.0000  0.0000  0.0000  0.0000 </r>
       </set>
       <set comment="band 31">
        <r>  0.0044  0.0013  0.0072  0.0054  0.0000  0.0000  0.0000  0.0000  0.0000 </r>
        <r>  0.0045  0.0068  0.0042  0.0032  0.0000  0.0000  0.0000  0.0000  0.0000 </r>
        <r>  0.0380  0.0342  0.0307  0.0250  0.0000  0.0000  0.0000  0.0000  0.0000 </r>
        <r>  0.0092  0.0062  0.0050  0.0136  0.0000  0.0000  0.0000  0.0000  0.0000 </r>
        <r>  0.0033  0.0160  0.0158  0.0437  0.0000  0.0000  0.0000  0.0000  0.0000 </r>
        <r>  0.0136  0.0008  0.0059  0.0244  0.0000  0.0000  0.0000  0.0000  0.0000 </r>
        <r>  0.0016  0.0138  0.0564  0.0124  0.0000  0.0000  0.0000  0.0000  0.0000 </r>
        <r>  0.0016  0.0650  0.0103  0.0077  0.0000  0.0000  0.0000  0.0000  0.0000 </r>
       </set>
       <set comment="band 32">
        <r>  0.0239  0.0236  0.0190  0.0153  0.0000  0.0000  0.0000  0.0000  0.0000 </r>
        <r>  0.0041  0.0003  0.0033  0.0097  0.0000  0.0000  0.0000  0.0000  0.0000 </r>
        <r>  0.0037  0.0002  0.0029  0.0093  0.0000  0.0000  0.0000  0.0000  0.0000 </r>
        <r>  0.0244  0.0242  0.0189  0.0159  0.0000  0.0000  0.0000  0.0000  0.0000 </r>
        <r>  0.0087  0.0004  0.0304  0.0214  0.0000  0.0000  0.0000  0.0000  0.0000 </r>
        <r>  0.0013  0.0468  0.0053  0.0319  0.0000  0.0000  0.0000  0.0000  0.0000 </r>
        <r>  0.0015  0.0479  0.0046  0.0308  0.0000  0.0000  0.0000  0.0000  0.0000 </r>
        <r>  0.0085  0.0004  0.0302  0.0223  0.0000  0.0000  0.0000  0.0000  0.0000 </r>
       </set>
       <set comment="band 33">
        <r>  0.0006  0.0062  0.0034  0.0210  0.0000  0.0000  0.0000  0.0000  0.0000 </r>
        <r>  0.0015  0.0221  0.0165  0.0152  0.0000  0.0000  0.0000  0.0000  0.0000 </r>
        <r>  0.0000  0.0042  0.0072  0.0033  0.0000  0.0000  0.0000  0.0000  0.0000 </r>
        <r>  0.0004  0.0098  0.0115  0.0032  0.0000  0.0000  0.0000  0.0000  0.0000 </r>
        <r>  0.0020  0.0153  0.0250  0.0013  0.0000  0.0000  0.0000  0.0000  0.0000 </r>
        <r>  0.0001  0.0105  0.0323  0.0071  0.0000  0.0000  0.0000  0.0000  0.0000 </r>
        <r>  0.0077  0.0030  0.0132  0.0003  0.0000  0.0000  0.0000  0.0000  0.0000 </r>
        <r>  0.0032  0.0020  0.0182  0.0160  0.0000  0.0000  0.0000  0.0000  0.0000 </r>
       </set>
       <set comment="band 34">
        <r>  0.0011  0.0157  0.0210  0.0057  0.0000  0.0000  0.0000  0.0000  0.0000 </r>
        <r>  0.0001  0.0024  0.0024  0.0134  0.0000  0.0000  0.0000  0.0000  0.0000 </r>
        <r>  0.0001  0.0025  0.0015  0.0123  0.0000  0.0000  0.0000  0.0000  0.0000 </r>
        <r>  0.0012  0.0197  0.0186  0.0083  0.0000  0.0000  0.0000  0.0000  0.0000 </r>
        <r>  0.0063  0.0107  0.0037  0.0080  0.0000  0.0000  0.0000  0.0000  0.0000 </r>
        <r>  0.0004  0.0202  0.0010  0.0273  0.0000  0.0000  0.0000  0.0000  0.0000 </r>
        <r>  0.0008  0.0206  0.0003  0.0260  0.0000  0.0000  0.0000  0.0000  0.0000 </r>
        <r>  0.0055  0.0101  0.0071  0.0089  0.0000  0.0000  0.0000  0.0000  0.0000 </r>
       </set>
       <set comment="band 35">
        <r>  0.0002  0.0090  0.0064  0.0041  0.0000  0.0000  0.0000  0.0000  0.0000 </r>
        <r>  0.0002  0.0064  0.0120  0.0023  0.0000  0.0000  0.0000  0.0000  0.0000 </r>
        <r>  0.0018  0.0242  0.0222  0.0152  0.0000  0.0000  0.0000  0.0000  0.0000 </r>
        <r>  0.0003  0.0014  0.0008  0.0195  0.0000  0.0000  0.0000  0.0000  0.0000 </r>
        <r>  0.0014  0.0100  0.0073  0.0266  0.0000  0.0000  0.0000  0.0000  0.0000 </r>
        <r>  0.0093  0.0053  0.0027  0.0017  0.0000  0.0000  0.0000  0.0000  0.0000 </r>
        <r>  0.0013  0.0125  0.0225  0.0097  0.0000  0.0000  0.0000  0.0000  0.0000 </r>
        <r>  0.0010  0.0239  0.0107  0.0111  0.0000  0.0000  0.0000  0.0000  0.0000 </r>
       </set>
       <set comment="band 36">
        <r>  0.0000  0.0047  0.0032  0.0150  0.0000  0.0000  0.0000  0.0000  0.0000 </r>
        <r>  0.0000  0.0047  0.0032  0.0150  0.0000  0.0000  0.0000  0.0000  0.0000 </r>
        <r>  0.0000  0.0047  0.0032  0.0150  0.0000  0.0000  0.0000  0.0000  0.0000 </r>
        <r>  0.0000  0.0047  0.0032  0.0150  0.0000  0.0000  0.0000  0.0000  0.0000 </r>
        <r>  0.0000  0.0023  0.0016  0.0075  0.0000  0.0000  0.0000  0.0000  0.0000 </r>
        <r>  0.0000  0.0023  0.0016  0.0075  0.0000  0.0000  0.0000  0.0000  0.0000 </r>
        <r>  0.0000  0.0023  0.0016  0.0075  0.0000  0.0000  0.0000  0.0000  0.0000 </r>
        <r>  0.0000  0.0023  0.0016  0.0075  0.0000  0.0000  0.0000  0.0000  0.0000 </r>
       </set>
       <set comment="band 37">
        <r>  0.0000  0.0106  0.0121  0.0002  0.0000  0.0000  0.0000  0.0000  0.0000 </r>
        <r>  0.0000  0.0106  0.0121  0.0002  0.0000  0.0000  0.0000  0.0000  0.0000 </r>
        <r>  0.0000  0.0106  0.0121  0.0002  0.0000  0.0000  0.0000  0.0000  0.0000 </r>
        <r>  0.0000  0.0106  0.0121  0.0002  0.0000  0.0000  0.0000  0.0000  0.0000 </r>
        <r>  0.0000  0.0053  0.0060  0.0001  0.0000  0.0000  0.0000  0.0000  0.0000 </r>
        <r>  0.0000  0.0053  0.0060  0.0001  0.0000  0.0000  0.0000  0.0000  0.0000 </r>
        <r>  0.0000  0.0053  0.0060  0.0001  0.0000  0.0000  0.0000  0.0000  0.0000 </r>
        <r>  0.0000  0.0053  0.0060  0.0001  0.0000  0.0000  0.0000  0.0000  0.0000 </r>
       </set>
       <set comment="band 38">
        <r>  0.0268  0.0009  0.0009  0.0009  0.0000  0.0000  0.0000  0.0000  0.0000 </r>
        <r>  0.0268  0.0009  0.0009  0.0009  0.0000  0.0000  0.0000  0.0000  0.0000 </r>
        <r>  0.0268  0.0009  0.0009  0.0009  0.0000  0.0000  0.0000  0.0000  0.0000 </r>
        <r>  0.0268  0.0009  0.0009  0.0009  0.0000  0.0000  0.0000  0.0000  0.0000 </r>
        <r>  0.0147  0.0066  0.0066  0.0066  0.0000  0.0000  0.0000  0.0000  0.0000 </r>
        <r>  0.0147  0.0066  0.0066  0.0066  0.0000  0.0000  0.0000  0.0000  0.0000 </r>
        <r>  0.0147  0.0066  0.0066  0.0066  0.0000  0.0000  0.0000  0.0000  0.0000 </r>
        <r>  0.0147  0.0066  0.0066  0.0066  0.0000  0.0000  0.0000  0.0000  0.0000 </r>
       </set>
       <set comment="band 39">
        <r>  0.0000  0.0033  0.0094  0.0022  0.0000  0.0000  0.0000  0.0000  0.0000 </r>
        <r>  0.0000  0.0198  0.0087  0.0022  0.0000  0.0000  0.0000  0.0000  0.0000 </r>
        <r>  0.0000  0.0033  0.0087  0.0037  0.0000  0.0000  0.0000  0.0000  0.0000 </r>
        <r>  0.0000  0.0198  0.0094  0.0037  0.0000  0.0000  0.0000  0.0000  0.0000 </r>
        <r>  0.0000  0.0205  0.0098  0.0038  0.0000  0.0000  0.0000  0.0000  0.0000 </r>
        <r>  0.0000  0.0034  0.0091  0.0038  0.0000  0.0000  0.0000  0.0000  0.0000 </r>
        <r>  0.0000  0.0205  0.0091  0.0023  0.0000  0.0000  0.0000  0.0000  0.0000 </r>
        <r>  0.0000  0.0034  0.0098  0.0023  0.0000  0.0000  0.0000  0.0000  0.0000 </r>
       </set>
       <set comment="band 40">
        <r>  0.0000  0.0030  0.0099  0.0094  0.0000  0.0000  0.0000  0.0000  0.0000 </r>
        <r>  0.0000  0.0002  0.0124  0.0094  0.0000  0.0000  0.0000  0.0000  0.0000 </r>
        <r>  0.0000  0.0030  0.0124  0.0122  0.0000  0.0000  0.0000  0.0000  0.0000 </r>
        <r>  0.0000  0.0002  0.0099  0.0122  0.0000  0.0000  0.0000  0.0000  0.0000 </r>
        <r>  0.0000  0.0002  0.0103  0.0127  0.0000  0.0000  0.0000  0.0000  0.0000 </r>
        <r>  0.0000  0.0032  0.0128  0.0127  0.0000  0.0000  0.0000  0.0000  0.0000 </r>
        <r>  0.0000  0.0002  0.0128  0.0098  0.0000  0.0000  0.0000  0.0000  0.0000 </r>
        <r>  0.0000  0.0032  0.0103  0.0098  0.0000  0.0000  0.0000  0.0000  0.0000 </r>
       </set>
       <set comment="band 41">
        <r>  0.0000  0.0172  0.0042  0.0119  0.0000  0.0000  0.0000  0.0000  0.0000 </r>
        <r>  0.0000  0.0036  0.0025  0.0119  0.0000  0.0000  0.0000  0.0000  0.0000 </r>
        <r>  0.0000  0.0172  0.0025  0.0077  0.0000  0.0000  0.0000  0.0000  0.0000 </r>
        <r>  0.0000  0.0036  0.0042  0.0077  0.0000  0.0000  0.0000  0.0000  0.0000 </r>
        <r>  0.0000  0.0037  0.0044  0.0080  0.0000  0.0000  0.0000  0.0000  0.0000 </r>
        <r>  0.0000  0.0179  0.0026  0.0080  0.0000  0.0000  0.0000  0.0000  0.0000 </r>
        <r>  0.0000  0.0037  0.0026  0.0124  0.0000  0.0000  0.0000  0.0000  0.0000 </r>
        <r>  0.0000  0.0179  0.0044  0.0124  0.0000  0.0000  0.0000  0.0000  0.0000 </r>
       </set>
       <set comment="band 42">
        <r>  0.0187  0.0031  0.0040  0.0018  0.0000  0.0000  0.0000  0.0000  0.0000 </r>
        <r>  0.0446  0.0064  0.0076  0.0067  0.0000  0.0000  0.0000  0.0000  0.0000 </r>
        <r>  0.0005  0.0000  0.0006  0.0000  0.0000  0.0000  0.0000  0.0000  0.0000 </r>
        <r>  0.0114  0.0014  0.0023  0.0019  0.0000  0.0000  0.0000  0.0000  0.0000 </r>
        <r>  0.0018  0.0221  0.0156  0.0001  0.0000  0.0000  0.0000  0.0000  0.0000 </r>
        <r>  0.0001  0.0110  0.0282  0.0070  0.0000  0.0000  0.0000  0.0000  0.0000 </r>
        <r>  0.0071  0.0042  0.0028  0.0053  0.0000  0.0000  0.0000  0.0000  0.0000 </r>
        <r>  0.0030  0.0001  0.0091  0.0230  0.0000  0.0000  0.0000  0.0000  0.0000 </r>
       </set>
       <set comment="band 43">
        <r>  0.0318  0.0049  0.0040  0.0060  0.0000  0.0000  0.0000  0.0000  0.0000 </r>
        <r>  0.0056  0.0014  0.0007  0.0008  0.0000  0.0000  0.0000  0.0000  0.0000 </r>
        <r>  0.0046  0.0012  0.0006  0.0007  0.0000  0.0000  0.0000  0.0000  0.0000 </r>
        <r>  0.0333  0.0051  0.0043  0.0062  0.0000  0.0000  0.0000  0.0000  0.0000 </r>
        <r>  0.0053  0.0051  0.0129  0.0029  0.0000  0.0000  0.0000  0.0000  0.0000 </r>
        <r>  0.0007  0.0178  0.0024  0.0228  0.0000  0.0000  0.0000  0.0000  0.0000 </r>
        <r>  0.0009  0.0183  0.0018  0.0221  0.0000  0.0000  0.0000  0.0000  0.0000 </r>
        <r>  0.0051  0.0046  0.0141  0.0035  0.0000  0.0000  0.0000  0.0000  0.0000 </r>
       </set>
       <set comment="band 44">
        <r>  0.0059  0.0010  0.0009  0.0012  0.0000  0.0000  0.0000  0.0000  0.0000 </r>
        <r>  0.0062  0.0012  0.0006  0.0014  0.0000  0.0000  0.0000  0.0000  0.0000 </r>
        <r>  0.0514  0.0077  0.0078  0.0082  0.0000  0.0000  0.0000  0.0000  0.0000 </r>
        <r>  0.0117  0.0025  0.0024  0.0008  0.0000  0.0000  0.0000  0.0000  0.0000 </r>
        <r>  0.0019  0.0049  0.0035  0.0291  0.0000  0.0000  0.0000  0.0000  0.0000 </r>
        <r>  0.0082  0.0033  0.0015  0.0023  0.0000  0.0000  0.0000  0.0000  0.0000 </r>
        <r>  0.0010  0.0095  0.0275  0.0047  0.0000  0.0000  0.0000  0.0000  0.0000 </r>
        <r>  0.0009  0.0275  0.0089  0.0056  0.0000  0.0000  0.0000  0.0000  0.0000 </r>
       </set>
       <set comment="band 45">
        <r>  0.0000  0.0033  0.0093  0.0022  0.0000  0.0000  0.0000  0.0000  0.0000 </r>
        <r>  0.0000  0.0193  0.0085  0.0022  0.0000  0.0000  0.0000  0.0000  0.0000 </r>
        <r>  0.0000  0.0033  0.0085  0.0035  0.0000  0.0000  0.0000  0.0000  0.0000 </r>
        <r>  0.0000  0.0193  0.0093  0.0035  0.0000  0.0000  0.0000  0.0000  0.0000 </r>
        <r>  0.0000  0.0135  0.0065  0.0024  0.0000  0.0000  0.0000  0.0000  0.0000 </r>
        <r>  0.0000  0.0023  0.0059  0.0024  0.0000  0.0000  0.0000  0.0000  0.0000 </r>
        <r>  0.0000  0.0135  0.0059  0.0015  0.0000  0.0000  0.0000  0.0000  0.0000 </r>
        <r>  0.0000  0.0023  0.0065  0.0015  0.0000  0.0000  0.0000  0.0000  0.0000 </r>
       </set>
       <set comment="band 46">
        <r>  0.0000  0.0029  0.0096  0.0092  0.0000  0.0000  0.0000  0.0000  0.0000 </r>
        <r>  0.0000  0.0002  0.0122  0.0092  0.0000  0.0000  0.0000  0.0000  0.0000 </r>
        <r>  0.0000  0.0029  0.0122  0.0121  0.0000  0.0000  0.0000  0.0000  0.0000 </r>
        <r>  0.0000  0.0002  0.0096  0.0121  0.0000  0.0000  0.0000  0.0000  0.0000 </r>
        <r>  0.0000  0.0001  0.0067  0.0084  0.0000  0.0000  0.0000  0.0000  0.0000 </r>
        <r>  0.0000  0.0020  0.0085  0.0084  0.0000  0.0000  0.0000  0.0000  0.0000 </r>
        <r>  0.0000  0.0001  0.0085  0.0064  0.0000  0.0000  0.0000  0.0000  0.0000 </r>
        <r>  0.0000  0.0020  0.0067  0.0064  0.0000  0.0000  0.0000  0.0000  0.0000 </r>
       </set>
       <set comment="band 47">
        <r>  0.0000  0.0169  0.0041  0.0117  0.0000  0.0000  0.0000  0.0000  0.0000 </r>
        <r>  0.0000  0.0035  0.0024  0.0117  0.0000  0.0000  0.0000  0.0000  0.0000 </r>
        <r>  0.0000  0.0169  0.0024  0.0075  0.0000  0.0000  0.0000  0.0000  0.0000 </r>
        <r>  0.0000  0.0035  0.0041  0.0075  0.0000  0.0000  0.0000  0.0000  0.0000 </r>
        <r>  0.0000  0.0025  0.0029  0.0052  0.0000  0.0000  0.0000  0.0000  0.0000 </r>
        <r>  0.0000  0.0118  0.0017  0.0052  0.0000  0.0000  0.0000  0.0000  0.0000 </r>
        <r>  0.0000  0.0025  0.0017  0.0082  0.0000  0.0000  0.0000  0.0000  0.0000 </r>
        <r>  0.0000  0.0118  0.0029  0.0082  0.0000  0.0000  0.0000  0.0000  0.0000 </r>
       </set>
       <set comment="band 48">
        <r>  0.0018  0.0033  0.0397  0.0314  0.0000  0.0000  0.0000  0.0000  0.0000 </r>
        <r>  0.0044  0.0006  0.0166  0.0139  0.0000  0.0000  0.0000  0.0000  0.0000 </r>
        <r>  0.0000  0.0221  0.0683  0.0134  0.0000  0.0000  0.0000  0.0000  0.0000 </r>
        <r>  0.0011  0.0456  0.0366  0.0035  0.0000  0.0000  0.0000  0.0000  0.0000 </r>
        <r>  0.0096  0.0065  0.0054  0.0028  0.0000  0.0000  0.0000  0.0000  0.0000 </r>
        <r>  0.0004  0.0019  0.0023  0.0015  0.0000  0.0000  0.0000  0.0000  0.0000 </r>
        <r>  0.0374  0.0166  0.0121  0.0134  0.0000  0.0000  0.0000  0.0000  0.0000 </r>
        <r>  0.0154  0.0050  0.0023  0.0131  0.0000  0.0000  0.0000  0.0000  0.0000 </r>
       </set>
      </set>
     </set>
    </set>
   </array>
  </projected>
 </calculation>
 <structure name="finalpos" >
  <crystal>
   <varray name="basis" >
    <v>       4.37956000       0.00000000       0.00000000 </v>
    <v>       0.00000000       4.37956000       0.00000000 </v>
    <v>       0.00000000       0.00000000       4.37956000 </v>
   </varray>
   <i name="volume">     84.00235114 </i>
   <varray name="rec_basis" >
    <v>       0.22833344      -0.00000000       0.00000000 </v>
    <v>       0.00000000       0.22833344       0.00000000 </v>
    <v>      -0.00000000      -0.00000000       0.22833344 </v>
   </varray>
  </crystal>
  <varray name="positions" >
   <v>       0.25000000       0.25000000       0.75000000 </v>
   <v>       0.25000000       0.75000000       0.25000000 </v>
   <v>       0.75000000       0.25000000       0.25000000 </v>
   <v>       0.75000000       0.75000000       0.75000000 </v>
   <v>       0.00000000       0.00000000       0.00000000 </v>
   <v>       0.00000000       0.50000000       0.50000000 </v>
   <v>       0.50000000       0.00000000       0.50000000 </v>
   <v>       0.50000000       0.50000000       0.00000000 </v>
  </varray>
 </structure>
</modeling>
