   4   4   0   0
  0.2254983E+02  0.2467552E-09  0.2467499E-09  0.1710576E-08  0.5000000E-15
  1.000000000000000E-004
  CAR 
 unknown system                          
     38.37469431    -23.05377967  301     -0.75066771      1.00000000
    -23.054  0.0000E+00  0.0000E+00
    -22.849  0.0000E+00  0.0000E+00
    -22.644  0.0000E+00  0.0000E+00
    -22.439  0.0000E+00  0.0000E+00
    -22.235  0.0000E+00  0.0000E+00
    -22.030  0.0000E+00  0.0000E+00
    -21.825  0.0000E+00  0.0000E+00
    -21.620  0.0000E+00  0.0000E+00
    -21.416  0.0000E+00  0.0000E+00
    -21.211  0.0000E+00  0.0000E+00
    -21.006  0.0000E+00  0.0000E+00
    -20.801  0.1878E-15  0.3846E-16
    -20.597  0.2731E-07  0.5593E-08
    -20.392  0.1848E-02  0.3784E-03
    -20.187  0.2023E+00  0.4181E-01
    -19.982  0.5901E+00  0.1626E+00
    -19.778  0.6167E+00  0.2889E+00
    -19.573  0.6181E+00  0.4155E+00
    -19.368  0.6196E+00  0.5423E+00
    -19.163  0.6213E+00  0.6696E+00
    -18.959  0.6230E+00  0.7971E+00
    -18.754  0.6243E+00  0.9250E+00
    -18.549  0.6263E+00  0.1053E+01
    -18.344  0.6285E+00  0.1182E+01
    -18.140  0.6306E+00  0.1311E+01
    -17.935  0.6327E+00  0.1441E+01
    -17.730  0.6350E+00  0.1571E+01
    -17.525  0.6378E+00  0.1701E+01
    -17.320  0.6418E+00  0.1833E+01
    -17.116  0.6464E+00  0.1965E+01
    -16.911  0.6502E+00  0.2098E+01
    -16.706  0.6509E+00  0.2231E+01
    -16.501  0.6526E+00  0.2365E+01
    -16.297  0.6616E+00  0.2500E+01
    -16.092  0.6747E+00  0.2639E+01
    -15.887  0.6805E+00  0.2778E+01
    -15.682  0.6841E+00  0.2918E+01
    -15.478  0.7085E+00  0.3063E+01
    -15.273  0.7510E+00  0.3217E+01
    -15.068  0.8402E+00  0.3389E+01
    -14.863  0.8718E+00  0.3567E+01
    -14.659  0.6089E+00  0.3692E+01
    -14.454  0.4597E+00  0.3786E+01
    -14.249  0.3454E+00  0.3857E+01
    -14.044  0.2771E+00  0.3914E+01
    -13.840  0.4828E+00  0.4013E+01
    -13.635  0.6554E+00  0.4147E+01
    -13.430  0.6593E+00  0.4282E+01
    -13.225  0.7075E+00  0.4427E+01
    -13.020  0.9211E+00  0.4615E+01
    -12.816  0.8360E+00  0.4786E+01
    -12.611  0.7416E+00  0.4938E+01
    -12.406  0.6920E+00  0.5080E+01
    -12.201  0.6544E+00  0.5214E+01
    -11.997  0.6232E+00  0.5342E+01
    -11.792  0.5956E+00  0.5464E+01
    -11.587  0.5706E+00  0.5580E+01
    -11.382  0.5509E+00  0.5693E+01
    -11.178  0.6237E+00  0.5821E+01
    -10.973  0.7142E+00  0.5967E+01
    -10.768  0.7226E+00  0.6115E+01
    -10.563  0.7318E+00  0.6265E+01
    -10.359  0.7365E+00  0.6416E+01
    -10.154  0.7453E+00  0.6568E+01
     -9.949  0.7665E+00  0.6725E+01
     -9.744  0.7661E+00  0.6882E+01
     -9.540  0.7799E+00  0.7042E+01
     -9.335  0.8124E+00  0.7208E+01
     -9.130  0.8094E+00  0.7374E+01
     -8.925  0.8304E+00  0.7544E+01
     -8.720  0.8700E+00  0.7722E+01
     -8.516  0.9276E+00  0.7912E+01
     -8.311  0.1143E+01  0.8146E+01
     -8.106  0.1305E+01  0.8413E+01
     -7.901  0.1507E+01  0.8722E+01
     -7.697  0.1587E+01  0.9047E+01
     -7.492  0.1689E+01  0.9393E+01
     -7.287  0.1860E+01  0.9774E+01
     -7.082  0.2239E+01  0.1023E+02
     -6.878  0.1965E+01  0.1063E+02
     -6.673  0.1684E+01  0.1098E+02
     -6.468  0.1557E+01  0.1130E+02
     -6.263  0.1462E+01  0.1160E+02
     -6.059  0.1385E+01  0.1188E+02
     -5.854  0.1338E+01  0.1215E+02
     -5.649  0.1294E+01  0.1242E+02
     -5.444  0.1248E+01  0.1268E+02
     -5.240  0.1215E+01  0.1292E+02
     -5.035  0.1186E+01  0.1317E+02
     -4.830  0.1164E+01  0.1341E+02
     -4.625  0.1147E+01  0.1364E+02
     -4.420  0.1127E+01  0.1387E+02
     -4.216  0.1112E+01  0.1410E+02
     -4.011  0.1119E+01  0.1433E+02
     -3.806  0.1092E+01  0.1455E+02
     -3.601  0.8056E+00  0.1472E+02
     -3.397  0.7804E+00  0.1488E+02
     -3.192  0.9488E+00  0.1507E+02
     -2.987  0.1085E+01  0.1529E+02
     -2.782  0.7913E+00  0.1545E+02
     -2.578  0.6037E+00  0.1558E+02
     -2.373  0.4947E+00  0.1568E+02
     -2.168  0.3980E+00  0.1576E+02
     -1.963  0.3256E+00  0.1583E+02
     -1.759  0.2686E+00  0.1588E+02
     -1.554  0.2124E+00  0.1593E+02
     -1.349  0.1598E+00  0.1596E+02
     -1.144  0.1122E+00  0.1598E+02
     -0.940  0.6578E-01  0.1600E+02
     -0.735  0.2364E-01  0.1600E+02
     -0.530  0.2863E-01  0.1601E+02
     -0.325  0.7510E-01  0.1602E+02
     -0.120  0.1277E+00  0.1605E+02
      0.084  0.1881E+00  0.1609E+02
      0.289  0.2588E+00  0.1614E+02
      0.494  0.3502E+00  0.1621E+02
      0.699  0.5101E+00  0.1632E+02
      0.903  0.9390E+00  0.1651E+02
      1.108  0.1147E+01  0.1674E+02
      1.313  0.8600E+00  0.1692E+02
      1.518  0.7219E+00  0.1707E+02
      1.722  0.6449E+00  0.1720E+02
      1.927  0.5889E+00  0.1732E+02
      2.132  0.5622E+00  0.1743E+02
      2.337  0.5231E+00  0.1754E+02
      2.541  0.5548E+00  0.1765E+02
      2.746  0.6975E+00  0.1780E+02
      2.951  0.6851E+00  0.1794E+02
      3.156  0.7721E+00  0.1810E+02
      3.360  0.8740E+00  0.1828E+02
      3.565  0.8742E+00  0.1845E+02
      3.770  0.8625E+00  0.1863E+02
      3.975  0.9736E+00  0.1883E+02
      4.180  0.1069E+01  0.1905E+02
      4.384  0.1047E+01  0.1926E+02
      4.589  0.1054E+01  0.1948E+02
      4.794  0.1030E+01  0.1969E+02
      4.999  0.1042E+01  0.1990E+02
      5.203  0.1040E+01  0.2012E+02
      5.408  0.1235E+01  0.2037E+02
      5.613  0.1171E+01  0.2061E+02
      5.818  0.1179E+01  0.2085E+02
      6.022  0.1297E+01  0.2112E+02
      6.227  0.1194E+01  0.2136E+02
      6.432  0.1519E+01  0.2167E+02
      6.637  0.1743E+01  0.2203E+02
      6.841  0.2479E+01  0.2254E+02
      7.046  0.2225E+01  0.2299E+02
      7.251  0.2624E+01  0.2353E+02
      7.456  0.2733E+01  0.2409E+02
      7.660  0.3604E+01  0.2483E+02
      7.865  0.3614E+01  0.2557E+02
      8.070  0.2839E+01  0.2615E+02
      8.275  0.2601E+01  0.2668E+02
      8.480  0.2399E+01  0.2717E+02
      8.684  0.2370E+01  0.2766E+02
      8.889  0.2377E+01  0.2814E+02
      9.094  0.2476E+01  0.2865E+02
      9.299  0.2445E+01  0.2915E+02
      9.503  0.2430E+01  0.2965E+02
      9.708  0.2499E+01  0.3016E+02
      9.913  0.2941E+01  0.3076E+02
     10.118  0.3131E+01  0.3140E+02
     10.322  0.2656E+01  0.3195E+02
     10.527  0.2507E+01  0.3246E+02
     10.732  0.2465E+01  0.3297E+02
     10.937  0.2362E+01  0.3345E+02
     11.141  0.2355E+01  0.3393E+02
     11.346  0.2225E+01  0.3439E+02
     11.551  0.2504E+01  0.3490E+02
     11.756  0.3009E+01  0.3552E+02
     11.960  0.3102E+01  0.3615E+02
     12.165  0.3055E+01  0.3678E+02
     12.370  0.2648E+01  0.3732E+02
     12.575  0.2792E+01  0.3789E+02
     12.779  0.2850E+01  0.3847E+02
     12.984  0.2875E+01  0.3906E+02
     13.189  0.3375E+01  0.3975E+02
     13.394  0.2840E+01  0.4034E+02
     13.599  0.2180E+01  0.4078E+02
     13.803  0.2024E+01  0.4120E+02
     14.008  0.2089E+01  0.4162E+02
     14.213  0.2252E+01  0.4208E+02
     14.418  0.2481E+01  0.4259E+02
     14.622  0.2447E+01  0.4309E+02
     14.827  0.2515E+01  0.4361E+02
     15.032  0.2459E+01  0.4411E+02
     15.237  0.2989E+01  0.4472E+02
     15.441  0.3637E+01  0.4547E+02
     15.646  0.3601E+01  0.4621E+02
     15.851  0.2959E+01  0.4681E+02
     16.056  0.2894E+01  0.4741E+02
     16.260  0.3053E+01  0.4803E+02
     16.465  0.2744E+01  0.4859E+02
     16.670  0.2313E+01  0.4907E+02
     16.875  0.2568E+01  0.4959E+02
     17.079  0.2692E+01  0.5014E+02
     17.284  0.2602E+01  0.5068E+02
     17.489  0.2452E+01  0.5118E+02
     17.694  0.2026E+01  0.5159E+02
     17.899  0.2185E+01  0.5204E+02
     18.103  0.2820E+01  0.5262E+02
     18.308  0.3675E+01  0.5337E+02
     18.513  0.3244E+01  0.5403E+02
     18.718  0.2756E+01  0.5460E+02
     18.922  0.2700E+01  0.5515E+02
     19.127  0.3457E+01  0.5586E+02
     19.332  0.3538E+01  0.5658E+02
     19.537  0.3291E+01  0.5726E+02
     19.741  0.2620E+01  0.5779E+02
     19.946  0.2369E+01  0.5828E+02
     20.151  0.2394E+01  0.5877E+02
     20.356  0.3081E+01  0.5940E+02
     20.560  0.3237E+01  0.6006E+02
     20.765  0.2917E+01  0.6066E+02
     20.970  0.2750E+01  0.6122E+02
     21.175  0.2962E+01  0.6183E+02
     21.379  0.3221E+01  0.6249E+02
     21.584  0.3926E+01  0.6329E+02
     21.789  0.3612E+01  0.6403E+02
     21.994  0.3778E+01  0.6481E+02
     22.199  0.3640E+01  0.6555E+02
     22.403  0.3599E+01  0.6629E+02
     22.608  0.3484E+01  0.6700E+02
     22.813  0.3804E+01  0.6778E+02
     23.018  0.4114E+01  0.6862E+02
     23.222  0.3826E+01  0.6941E+02
     23.427  0.3423E+01  0.7011E+02
     23.632  0.3429E+01  0.7081E+02
     23.837  0.3367E+01  0.7150E+02
     24.041  0.3456E+01  0.7221E+02
     24.246  0.3470E+01  0.7292E+02
     24.451  0.3496E+01  0.7363E+02
     24.656  0.3684E+01  0.7439E+02
     24.860  0.3446E+01  0.7509E+02
     25.065  0.3070E+01  0.7572E+02
     25.270  0.3118E+01  0.7636E+02
     25.475  0.3374E+01  0.7705E+02
     25.679  0.3211E+01  0.7771E+02
     25.884  0.3204E+01  0.7836E+02
     26.089  0.3230E+01  0.7903E+02
     26.294  0.3759E+01  0.7980E+02
     26.499  0.3619E+01  0.8054E+02
     26.703  0.3031E+01  0.8116E+02
     26.908  0.3033E+01  0.8178E+02
     27.113  0.3384E+01  0.8247E+02
     27.318  0.3317E+01  0.8315E+02
     27.522  0.3391E+01  0.8384E+02
     27.727  0.3003E+01  0.8446E+02
     27.932  0.3205E+01  0.8512E+02
     28.137  0.3443E+01  0.8582E+02
     28.341  0.3619E+01  0.8656E+02
     28.546  0.3261E+01  0.8723E+02
     28.751  0.3250E+01  0.8789E+02
     28.956  0.3320E+01  0.8857E+02
     29.160  0.3432E+01  0.8928E+02
     29.365  0.2852E+01  0.8986E+02
     29.570  0.2644E+01  0.9040E+02
     29.775  0.2899E+01  0.9100E+02
     29.979  0.3491E+01  0.9171E+02
     30.184  0.3093E+01  0.9234E+02
     30.389  0.2161E+01  0.9279E+02
     30.594  0.1694E+01  0.9313E+02
     30.799  0.1565E+01  0.9345E+02
     31.003  0.1656E+01  0.9379E+02
     31.208  0.1624E+01  0.9413E+02
     31.413  0.1255E+01  0.9438E+02
     31.618  0.9271E+00  0.9457E+02
     31.822  0.7346E+00  0.9472E+02
     32.027  0.6412E+00  0.9485E+02
     32.232  0.6529E+00  0.9499E+02
     32.437  0.6302E+00  0.9512E+02
     32.641  0.5924E+00  0.9524E+02
     32.846  0.5193E+00  0.9534E+02
     33.051  0.5164E+00  0.9545E+02
     33.256  0.5504E+00  0.9556E+02
     33.460  0.4575E+00  0.9566E+02
     33.665  0.5343E+00  0.9577E+02
     33.870  0.3239E+00  0.9583E+02
     34.075  0.1817E+00  0.9587E+02
     34.279  0.1653E+00  0.9590E+02
     34.484  0.1387E+00  0.9593E+02
     34.689  0.1222E+00  0.9596E+02
     34.894  0.8753E-01  0.9597E+02
     35.099  0.4810E-01  0.9598E+02
     35.303  0.4715E-01  0.9599E+02
     35.508  0.2031E-01  0.9600E+02
     35.713  0.8236E-02  0.9600E+02
     35.918  0.1875E-03  0.9600E+02
     36.122  0.6040E-08  0.9600E+02
     36.327  0.6355E-16  0.9600E+02
     36.532  0.0000E+00  0.9600E+02
     36.737  0.0000E+00  0.9600E+02
     36.941  0.0000E+00  0.9600E+02
     37.146  0.0000E+00  0.9600E+02
     37.351  0.0000E+00  0.9600E+02
     37.556  0.0000E+00  0.9600E+02
     37.760  0.0000E+00  0.9600E+02
     37.965  0.0000E+00  0.9600E+02
     38.170  0.0000E+00  0.9600E+02
     38.375  0.0000E+00  0.9600E+02
