    4    4    1    1
  0.2254983E+02  0.2467552E-09  0.2467499E-09  0.1710576E-08  0.5000000E-15
  1.000000000000000E-004
  CAR 
 unknown system                          
     16   3600     48
 
 -0.5000000E+00 -0.5000000E+00  0.0000000E+00  0.2872738E-03
    1      -15.018018
    2      -15.006782
    3      -13.968771
    4      -13.959854
    5       -7.150676
    6       -7.146435
    7       -3.166120
    8       -3.050491
    9        0.852796
   10        1.002653
   11        6.584407
   12        6.631724
   13       10.225281
   14       10.323688
   15       10.930268
   16       10.954523
   17       11.553752
   18       11.702307
   19       12.624878
   20       12.873000
   21       13.937913
   22       13.982845
   23       15.670995
   24       15.855273
   25       17.483456
   26       17.512738
   27       18.037117
   28       19.115766
   29       19.116702
   30       19.312567
   31       20.394551
   32       20.779522
   33       21.281590
   34       21.329626
   35       21.919154
   36       22.127398
   37       23.857567
   38       24.749841
   39       26.076471
   40       26.136648
   41       26.918923
   42       27.269563
   43       27.515512
   44       27.685167
   45       27.824221
   46       28.236762
   47       28.411136
   48       28.990956
 
 -0.4830510E+00 -0.5000000E+00  0.0000000E+00  0.2872738E-03
    1      -15.045476
    2      -15.032591
    3      -13.931767
    4      -13.921205
    5       -7.172046
    6       -7.167751
    7       -3.172985
    8       -3.053559
    9        0.864879
   10        1.015237
   11        6.616267
   12        6.663789
   13       10.030018
   14       10.515118
   15       10.722553
   16       11.154439
   17       11.422315
   18       11.867669
   19       12.496829
   20       13.007661
   21       13.730250
   22       14.205687
   23       15.560873
   24       15.929235
   25       17.383019
   26       17.538487
   27       18.049055
   28       19.079739
   29       19.096091
   30       19.294325
   31       20.441255
   32       20.809852
   33       21.199854
   34       21.421659
   35       21.975246
   36       22.149676
   37       23.880470
   38       24.774086
   39       25.688787
   40       26.111074
   41       26.856787
   42       27.137353
   43       27.291221
   44       27.677461
   45       27.919938
   46       28.247435
   47       28.621843
   48       29.380561
 
 -0.4661020E+00 -0.5000000E+00  0.0000000E+00  0.2872738E-03
    1      -15.116998
    2      -15.101311
    3      -13.829385
    4      -13.816259
    5       -7.235455
    6       -7.230968
    7       -3.192694
    8       -3.062951
    9        0.900719
   10        1.052316
   11        6.711091
   12        6.759236
   13        9.805761
   14       10.446959
   15       10.824407
   16       11.097841
   17       11.515185
   18       12.052864
   19       12.342034
   20       13.195482
   21       13.544489
   22       14.452119
   23       15.378836
   24       16.004714
   25       17.236319
   26       17.481881
   27       18.071784
   28       18.971998
   29       19.074529
   30       19.240096
   31       20.548266
   32       20.900513
   33       21.160431
   34       21.456496
   35       22.167651
   36       22.218673
   37       23.940854
   38       24.834218
   39       25.047100
   40       26.000416
   41       26.260209
   42       26.654499
   43       27.328794
   44       27.547326
   45       27.965516
   46       28.500664
   47       28.879132
   48       29.384720
 
 -0.4491530E+00 -0.5000000E+00  0.0000000E+00  0.2872738E-03
    1      -15.212881
    2      -15.195018
    3      -13.679757
    4      -13.664918
    5       -7.338817
    6       -7.334023
    7       -3.223043
    8       -3.078860
    9        0.958915
   10        1.111971
   11        6.866630
   12        6.915855
   13        9.594998
   14       10.234925
   15       10.897195
   16       11.093688
   17       11.728639
   18       12.041885
   19       12.408322
   20       13.215654
   21       13.557492
   22       14.673628
   23       15.207165
   24       16.024888
   25       17.070924
   26       17.373626
   27       18.057135
   28       18.809896
   29       19.085191
   30       19.198815
   31       20.644917
   32       21.008236
   33       21.207432
   34       21.431841
   35       22.337784
   36       22.456091
   37       23.994358
   38       24.377683
   39       24.943538
   40       25.504798
   41       25.973248
   42       26.043156
   43       27.204563
   44       27.330623
   45       27.953981
   46       28.262595
   47       28.977521
   48       29.858802
 
 -0.4322030E+00 -0.5000000E+00  0.0000000E+00  0.2872738E-03
    1      -15.318140
    2      -15.298820
    3      -13.498149
    4      -13.482406
    5       -7.478898
    6       -7.473700
    7       -3.261337
    8       -3.100951
    9        1.037228
   10        1.191288
   11        7.079388
   12        7.130203
   13        9.399963
   14       10.031127
   15       10.693918
   16       11.373557
   17       11.724589
   18       12.133209
   19       12.566606
   20       13.097473
   21       13.752829
   22       14.750407
   23       15.170190
   24       16.002448
   25       16.891416
   26       17.247949
   27       17.980297
   28       18.610314
   29       19.068993
   30       19.302334
   31       20.686506
   32       21.030350
   33       21.320222
   34       21.476566
   35       22.498257
   36       22.744104
   37       23.612430
   38       24.175424
   39       24.821111
   40       25.132380
   41       25.306027
   42       25.952957
   43       26.831243
   44       27.245693
   45       27.596180
   46       27.979058
   47       29.149416
   48       29.913099
 
 -0.4152540E+00 -0.5000000E+00  0.0000000E+00  0.2872738E-03
    1      -15.423877
    2      -15.403564
    3      -13.294240
    4      -13.278155
    5       -7.651552
    6       -7.645886
    7       -3.304866
    8       -3.128224
    9        1.132591
   10        1.286555
   11        7.344792
   12        7.397764
   13        9.221704
   14        9.841267
   15       10.499792
   16       11.538551
   17       11.672826
   18       12.359947
   19       12.640278
   20       13.050963
   21       13.975744
   22       14.617704
   23       15.327138
   24       15.973234
   25       16.706503
   26       17.111133
   27       17.857760
   28       18.387748
   29       19.105921
   30       19.497025
   31       20.661783
   32       20.984552
   33       21.375360
   34       21.674241
   35       22.658159
   36       22.793071
   37       23.108139
   38       24.218566
   39       24.358401
   40       24.641848
   41       25.231092
   42       25.869165
   43       26.436169
   44       26.949190
   45       27.280873
   46       27.979760
   47       29.087422
   48       29.735806
 
 -0.3983050E+00 -0.5000000E+00  0.0000000E+00  0.2872738E-03
    1      -15.525037
    2      -15.504041
    3      -13.074009
    4      -13.057912
    5       -7.852069
    6       -7.845879
    7       -3.351119
    8       -3.159204
    9        1.241231
   10        1.393522
   11        7.657446
   12        7.713142
   13        9.061282
   14        9.666768
   15       10.317448
   16       11.365559
   17       11.930429
   18       12.460157
   19       12.718060
   20       13.092328
   21       14.212738
   22       14.440850
   23       15.501940
   24       15.961809
   25       16.528699
   26       16.976994
   27       17.722998
   28       18.169944
   29       19.227242
   30       19.727829
   31       20.586092
   32       20.899254
   33       21.456439
   34       21.855932
   35       22.255429
   36       22.723926
   37       22.980681
   38       23.880772
   39       24.176826
   40       24.360669
   41       25.317796
   42       25.673973
   43       26.120412
   44       26.489096
   45       27.334301
   46       28.037571
   47       28.921417
   48       29.516128
 
 -0.3813560E+00 -0.5000000E+00  0.0000000E+00  0.2872738E-03
    1      -15.618744
    2      -15.597235
    3      -12.841460
    4      -12.825590
    5       -8.075304
    6       -8.068571
    7       -3.397835
    8       -3.192185
    9        1.358821
   10        1.507560
   11        8.011033
   12        8.069432
   13        8.921065
   14        9.508617
   15       10.148143
   16       11.191434
   17       12.122053
   18       12.426599
   19       12.886791
   20       13.138612
   21       14.272733
   22       14.479025
   23       15.612900
   24       15.960272
   25       16.380272
   26       16.868869
   27       17.616462
   28       18.007257
   29       19.408886
   30       19.964834
   31       20.482168
   32       20.788074
   33       21.493656
   34       21.626208
   35       22.059404
   36       22.461121
   37       22.909458
   38       23.350210
   39       24.052574
   40       24.470536
   41       25.311115
   42       25.396463
   43       25.820387
   44       26.307713
   45       27.503385
   46       28.167504
   47       28.686111
   48       29.261109
 
 -0.3644070E+00 -0.5000000E+00  0.0000000E+00  0.2872738E-03
    1      -15.703232
    2      -15.681336
    3      -12.599916
    4      -12.584446
    5       -8.315847
    6       -8.308571
    7       -3.443040
    8       -3.225436
    9        1.480557
   10        1.623791
   11        8.394382
   12        8.451606
   13        8.814895
   14        9.368370
   15        9.993002
   16       11.029660
   17       12.104472
   18       12.531156
   19       12.963799
   20       13.189745
   21       14.151098
   22       14.755802
   23       15.596514
   24       15.990195
   25       16.277137
   26       16.788729
   27       17.579076
   28       17.962793
   29       19.615073
   30       20.169126
   31       20.364782
   32       20.607146
   33       21.030469
   34       21.621000
   35       21.969574
   36       22.133523
   37       22.742582
   38       23.053211
   39       23.866238
   40       24.568308
   41       24.946827
   42       25.383521
   43       25.674557
   44       26.277116
   45       27.774861
   46       28.304229
   47       28.437569
   48       28.932957
 
 -0.3474580E+00 -0.5000000E+00  0.0000000E+00  0.2872738E-03
    1      -15.777406
    2      -15.755209
    3      -12.352738
    4      -12.337818
    5       -8.567852
    6       -8.560096
    7       -3.485049
    8       -3.257334
    9        1.601277
   10        1.737132
   11        8.616361
   12        8.825783
   13        8.949046
   14        9.252898
   15        9.854176
   16       10.884164
   17       11.988480
   18       12.663478
   19       12.936674
   20       13.225700
   21       14.046756
   22       15.037588
   23       15.498702
   24       16.069407
   25       16.208891
   26       16.725226
   27       17.637819
   28       18.070943
   29       19.798580
   30       20.153363
   31       20.241291
   32       20.279223
   33       20.787894
   34       21.507502
   35       21.715604
   36       21.919286
   37       22.582095
   38       22.936935
   39       23.637372
   40       24.378955
   41       24.839202
   42       25.248616
   43       25.741649
   44       26.309653
   45       28.025850
   46       28.178366
   47       28.309559
   48       28.782662
 
 -0.3305080E+00 -0.5000000E+00  0.0000000E+00  0.2872738E-03
    1      -15.840551
    2      -15.818095
    3      -12.104075
    4      -12.089875
    5       -8.824694
    6       -8.816563
    7       -3.522463
    8       -3.286443
    9        1.715592
   10        1.842541
   11        8.554721
   12        9.087418
   13        9.319113
   14        9.374768
   15        9.740855
   16       10.757802
   17       11.864153
   18       12.709165
   19       12.872471
   20       13.208225
   21       13.881257
   22       15.288822
   23       15.470186
   24       16.154525
   25       16.185506
   26       16.723876
   27       17.787593
   28       18.304357
   29       19.592863
   30       19.921995
   31       20.019420
   32       20.199309
   33       20.725001
   34       21.261475
   35       21.465538
   36       21.967483
   37       22.363568
   38       22.823121
   39       23.441722
   40       24.161666
   41       24.780286
   42       25.117334
   43       25.796288
   44       26.446465
   45       27.665641
   46       28.108534
   47       28.576439
   48       28.814407
 
 -0.3135590E+00 -0.5000000E+00  0.0000000E+00  0.2872738E-03
    1      -15.892148
    2      -15.869515
    3      -11.860144
    4      -11.846869
    5       -9.077958
    6       -9.069647
    7       -3.554139
    8       -3.311549
    9        1.817980
   10        1.935096
   11        8.485398
   12        9.024796
   13        9.588660
   14        9.758316
   15        9.890714
   16       10.653020
   17       11.750416
   18       12.666538
   19       12.774762
   20       13.145293
   21       13.601451
   22       15.411313
   23       15.633758
   24       16.187235
   25       16.270794
   26       16.863146
   27       17.998739
   28       18.595114
   29       19.051821
   30       19.632093
   31       19.876219
   32       20.192542
   33       20.455796
   34       21.097153
   35       21.549165
   36       21.894152
   37       22.215733
   38       22.594693
   39       23.337882
   40       24.098787
   41       24.623531
   42       25.022919
   43       25.791063
   44       26.638068
   45       27.253377
   46       28.091672
   47       28.677590
   48       29.103532
 
 -0.2966100E+00 -0.5000000E+00  0.0000000E+00  0.2872738E-03
    1      -15.931856
    2      -15.909083
    3      -11.631097
    4      -11.619153
    5       -9.315431
    6       -9.307293
    7       -3.579193
    8       -3.331679
    9        1.903075
   10        2.010381
   11        8.429828
   12        8.958836
   13        9.520178
   14       10.222537
   15       10.367596
   16       10.572690
   17       11.655985
   18       12.543031
   19       12.641889
   20       13.038935
   21       13.256686
   22       15.458774
   23       15.875938
   24       16.207780
   25       16.486835
   26       17.142312
   27       18.202567
   28       18.472132
   29       18.884147
   30       19.370303
   31       19.635081
   32       20.041329
   33       20.270060
   34       21.040590
   35       21.554078
   36       21.747848
   37       22.249638
   38       22.402316
   39       23.267529
   40       24.098910
   41       24.452078
   42       24.977747
   43       25.764795
   44       26.527566
   45       27.205165
   46       28.108814
   47       28.664287
   48       29.461677
 
 -0.2796610E+00 -0.5000000E+00  0.0000000E+00  0.2872738E-03
    1      -15.959478
    2      -15.936615
    3      -11.435219
    4      -11.425128
    5       -9.517256
    6       -9.509895
    7       -3.596966
    8       -3.346099
    9        1.965933
   10        2.064814
   11        8.390724
   12        8.910829
   13        9.461645
   14       10.507187
   15       10.694279
   16       10.864252
   17       11.587967
   18       12.279968
   19       12.501763
   20       12.799291
   21       13.060146
   22       15.478962
   23       16.013892
   24       16.384004
   25       16.799641
   26       17.496264
   27       17.953613
   28       18.233491
   29       18.892238
   30       19.235874
   31       19.573486
   32       19.790861
   33       20.295376
   34       20.907646
   35       21.188186
   36       21.886593
   37       22.253792
   38       22.435837
   39       23.228782
   40       23.905853
   41       24.470311
   42       25.014953
   43       25.732667
   44       26.148531
   45       27.468017
   46       28.106338
   47       28.649855
   48       29.729936
 
 -0.2627120E+00 -0.5000000E+00  0.0000000E+00  0.2872738E-03
    1      -15.974867
    2      -15.951960
    3      -11.303621
    4      -11.295713
    5       -9.651437
    6       -9.645456
    7       -3.607014
    8       -3.354307
    9        2.002470
   10        2.095885
   11        8.368848
   12        8.883563
   13        9.427495
   14       10.478542
   15       11.114376
   16       11.339250
   17       11.560736
   18       11.953467
   19       12.167496
   20       12.654252
   21       13.005789
   22       15.484801
   23       16.031454
   24       16.736140
   25       17.137017
   26       17.462807
   27       17.798661
   28       18.078962
   29       18.699352
   30       19.156812
   31       19.552498
   32       19.953320
   33       20.319965
   34       20.761059
   35       20.799760
   36       22.002490
   37       22.238200
   38       22.547269
   39       23.282588
   40       23.615783
   41       24.532436
   42       25.182844
   43       25.635203
   44       25.847751
   45       27.744573
   46       28.033492
   47       28.637489
   48       29.924388
 
 -0.2457630E+00 -0.5000000E+00  0.0000000E+00  0.2872738E-03
    1      -15.977966
    2      -15.955041
    3      -11.274171
    4      -11.267000
    5       -9.681144
    6       -9.675687
    7       -3.609093
    8       -3.356025
    9        2.010035
   10        2.102261
   11        8.364462
   12        8.878060
   13        9.420542
   14       10.472300
   15       11.258510
   16       11.489396
   17       11.601401
   18       11.834637
   19       11.978809
   20       12.636679
   21       12.996363
   22       15.485465
   23       16.031842
   24       16.925443
   25       17.152065
   26       17.395886
   27       17.699888
   28       18.225860
   29       18.489906
   30       19.268344
   31       19.436508
   32       20.110235
   33       20.310813
   34       20.644032
   35       20.738550
   36       22.031912
   37       22.232796
   38       22.575461
   39       23.360444
   40       23.482905
   41       24.543986
   42       25.295355
   43       25.521830
   44       25.804673
   45       27.862484
   46       27.961270
   47       28.633833
   48       30.011141
 
 -0.2288140E+00 -0.5000000E+00  0.0000000E+00  0.2872738E-03
    1      -15.968738
    2      -15.945846
    3      -11.358453
    4      -11.349486
    5       -9.595731
    6       -9.589036
    7       -3.603156
    8       -3.351202
    9        1.988059
   10        2.083683
   11        8.377609
   12        8.894510
   13        9.441267
   14       10.490725
   15       10.913234
   16       11.109230
   17       11.566724
   18       12.117488
   19       12.360222
   20       12.700292
   21       13.025587
   22       15.482793
   23       16.028165
   24       16.548420
   25       16.974490
   26       17.614298
   27       17.779612
   28       18.120125
   29       18.878282
   30       19.096439
   31       19.667101
   32       19.767672
   33       20.310919
   34       20.831412
   35       20.984917
   36       21.952378
   37       22.246176
   38       22.495187
   39       23.239033
   40       23.761536
   41       24.506686
   42       25.082885
   43       25.704322
   44       25.970257
   45       27.610619
   46       28.081282
   47       28.643526
   48       29.831418
 
 -0.2118640E+00 -0.5000000E+00  0.0000000E+00  0.2872738E-03
    1      -15.947233
    2      -15.924410
    3      -11.526734
    4      -11.515655
    5       -9.423199
    6       -9.415361
    7       -3.589347
    8       -3.339999
    9        1.938202
   10        2.040941
   11        8.408156
   12        8.932341
   13        9.488181
   14       10.448426
   15       10.548049
   16       10.615713
   17       11.617972
   18       12.425808
   19       12.582198
   20       12.937558
   21       13.125507
   22       15.471246
   23       15.968667
   24       16.264567
   25       16.634049
   26       17.315275
   27       18.177274
   28       18.295608
   29       18.887636
   30       19.418538
   31       19.449805
   32       19.908295
   33       20.280427
   34       20.982894
   35       21.382983
   36       21.814902
   37       22.260780
   38       22.391822
   39       23.239951
   40       24.029315
   41       24.438853
   42       24.982692
   43       25.749892
   44       26.343412
   45       27.326621
   46       28.113723
   47       28.656861
   48       29.608036
 
 -0.1949150E+00 -0.5000000E+00  0.0000000E+00  0.2872738E-03
    1      -15.913578
    2      -15.890880
    3      -11.742066
    4      -11.729418
    5       -9.200536
    6       -9.192246
    7       -3.568010
    8       -3.322808
    9        1.863914
   10        1.975940
   11        8.455649
   12        8.989908
   13        9.555959
   14        9.989312
   15       10.123284
   16       10.609424
   17       11.700067
   18       12.620520
   19       12.706920
   20       13.099403
   21       13.429284
   22       15.438875
   23       15.755419
   24       16.191283
   25       16.364084
   26       16.988590
   27       18.110246
   28       18.666308
   29       18.855333
   30       19.463373
   31       19.779226
   32       20.168070
   33       20.301034
   34       21.076820
   35       21.608074
   36       21.776090
   37       22.224234
   38       22.479889
   39       23.299317
   40       24.107541
   41       24.525961
   42       24.992955
   43       25.778678
   44       26.649025
   45       27.157714
   46       28.099285
   47       28.672600
   48       29.289799
 
 -0.1779660E+00 -0.5000000E+00  0.0000000E+00  0.2872738E-03
    1      -15.867917
    2      -15.845366
    3      -11.980111
    4      -11.966352
    5       -8.953365
    6       -8.945117
    7       -3.539696
    8       -3.300245
    9        1.769767
   10        1.891752
   11        8.518747
   12        9.061274
   13        9.525604
   14        9.565329
   15        9.730063
   16       10.702484
   17       11.805030
   18       12.696376
   19       12.829282
   20       13.181669
   21       13.754848
   22       15.368481
   23       15.527606
   24       16.182198
   25       16.207239
   26       16.773379
   27       17.888410
   28       18.449029
   29       19.319748
   30       19.814711
   31       19.937796
   32       20.188501
   33       20.626139
   34       21.142799
   35       21.493365
   36       21.961857
   37       22.261141
   38       22.718366
   39       23.380533
   40       24.112227
   41       24.712849
   42       25.064437
   43       25.798637
   44       26.548063
   45       27.445325
   46       28.093489
   47       28.663734
   48       28.923805
 
 -0.1610170E+00 -0.5000000E+00  0.0000000E+00  0.2872738E-03
    1      -15.810534
    2      -15.788189
    3      -12.227324
    4      -12.212741
    5       -8.697169
    6       -8.689209
    7       -3.505175
    8       -3.273163
    9        1.660963
   10        1.792413
   11        8.590938
   12        9.015319
   13        9.149219
   14        9.226796
   15        9.792597
   16       10.818335
   17       11.925363
   18       12.699512
   19       12.906540
   20       13.223211
   21       13.976952
   22       15.170863
   23       15.466870
   24       16.113064
   25       16.189956
   26       16.711489
   27       17.703000
   28       18.175644
   29       19.817989
   30       19.946457
   31       20.150425
   32       20.234046
   33       20.759628
   34       21.428837
   35       21.509149
   36       21.943901
   37       22.480114
   38       22.889686
   39       23.529519
   40       24.254306
   41       24.820097
   42       25.179410
   43       25.777837
   44       26.364167
   45       27.885066
   46       28.136559
   47       28.418590
   48       28.785484
 
 -0.1440680E+00 -0.5000000E+00  0.0000000E+00  0.2872738E-03
    1      -15.741837
    2      -15.719784
    3      -12.475795
    4      -12.460583
    5       -8.441890
    6       -8.434365
    7       -3.465456
    8       -3.242656
    9        1.542984
   10        1.682646
   11        8.568910
   12        8.633991
   13        8.816032
   14        9.306220
   15        9.921237
   16       10.954571
   17       12.049486
   18       12.604617
   19       12.957497
   20       13.213384
   21       14.100290
   22       14.897319
   23       15.547783
   24       16.026125
   25       16.238400
   26       16.754162
   27       17.596290
   28       17.998443
   29       19.714194
   30       20.231300
   31       20.299890
   32       20.435612
   33       20.868590
   34       21.580071
   35       21.917308
   36       21.942069
   37       22.661391
   38       22.983042
   39       23.754602
   40       24.507518
   41       24.859834
   42       25.320376
   43       25.699010
   44       26.284369
   45       27.930469
   46       28.292952
   47       28.330225
   48       28.817775
 
 -0.1271190E+00 -0.5000000E+00  0.0000000E+00  0.2872738E-03
    1      -15.662449
    2      -15.640736
    3      -12.720554
    4      -12.704865
    5       -8.194889
    6       -8.187889
    7       -3.421808
    8       -3.210048
    9        1.421296
   10        1.567432
   11        8.200328
   12        8.259262
   13        8.860976
   14        9.435985
   15       10.068623
   16       11.108591
   17       12.137890
   18       12.461383
   19       12.941767
   20       13.161673
   21       14.207077
   22       14.614852
   23       15.622391
   24       15.967391
   25       16.323028
   26       16.826735
   27       17.586990
   28       17.967085
   29       19.511560
   30       20.076771
   31       20.424722
   32       20.714426
   33       21.268840
   34       21.612564
   35       22.040817
   36       22.291920
   37       22.838329
   38       23.162825
   39       23.968335
   40       24.538176
   41       25.116244
   42       25.410094
   43       25.711747
   44       26.285037
   45       27.628570
   46       28.246069
   47       28.559385
   48       29.100120
 
 -0.1101690E+00 -0.5000000E+00  0.0000000E+00  0.2872738E-03
    1      -15.573230
    2      -15.551967
    3      -12.957948
    4      -12.941945
    5       -7.962327
    6       -7.955862
    7       -3.375764
    8       -3.176870
    9        1.301190
   10        1.451882
   11        7.829482
   12        7.886654
   13        8.988231
   14        9.585488
   15       10.231020
   16       11.277159
   17       12.043709
   18       12.437958
   19       12.805306
   20       13.116333
   21       14.321557
   22       14.373559
   23       15.568973
   24       15.960292
   25       16.448473
   26       16.918802
   27       17.663692
   28       18.078339
   29       19.312861
   30       19.849223
   31       20.536364
   32       20.847092
   33       21.498616
   34       21.820695
   35       22.067147
   36       22.624141
   37       22.941624
   38       23.602949
   39       24.119926
   40       24.400786
   41       25.356800
   42       25.509801
   43       25.970006
   44       26.364907
   45       27.405522
   46       28.094415
   47       28.809555
   48       29.396768
 
 -0.9322000E-01 -0.5000000E+00  0.0000000E+00  0.2872738E-03
    1      -15.475594
    2      -15.454924
    3      -13.184701
    4      -13.168578
    5       -7.749818
    6       -7.743895
    7       -3.329159
    8       -3.144815
    9        1.187675
   10        1.340977
   11        7.495479
   12        7.549766
   13        9.139067
   14        9.751943
   15       10.406980
   16       11.454688
   17       11.802104
   18       12.442240
   19       12.658246
   20       13.066566
   21       14.091872
   22       14.528584
   23       15.418399
   24       15.964976
   25       16.615074
   26       17.042185
   27       17.789492
   28       18.276424
   29       19.157234
   30       19.611822
   31       20.628559
   32       20.945232
   33       21.411979
   34       21.775679
   35       22.538858
   36       22.722515
   37       23.039439
   38       24.140790
   39       24.222797
   40       24.415315
   41       25.276082
   42       25.795630
   43       26.267682
   44       26.696034
   45       27.293232
   46       27.999810
   47       29.015641
   48       29.629248
 
 -0.7627100E-01 -0.5000000E+00  0.0000000E+00  0.2872738E-03
    1      -15.371795
    2      -15.351942
    3      -13.397259
    4      -13.381297
    5       -7.562641
    6       -7.557224
    7       -3.284106
    8       -3.115615
    9        1.085311
   10        1.239477
   11        7.205739
   12        7.257552
   13        9.308571
   14        9.934232
   15       10.595386
   16       11.508416
   17       11.651488
   18       12.246914
   19       12.617257
   20       13.059329
   21       13.862101
   22       14.697511
   23       15.237053
   24       15.986017
   25       16.798485
   26       17.180342
   27       17.922781
   28       18.501596
   29       19.076765
   30       19.394955
   31       20.681286
   32       21.013455
   33       21.346046
   34       21.568161
   35       22.580763
   36       22.836038
   37       23.315230
   38       24.198916
   39       24.581548
   40       24.945676
   41       25.191695
   42       25.915936
   43       26.629548
   44       27.175685
   45       27.347464
   46       27.973682
   47       29.135174
   48       29.832684
 
 -0.5932200E-01 -0.5000000E+00  0.0000000E+00  0.2872738E-03
    1      -15.265613
    2      -15.246949
    3      -13.590789
    4      -13.575433
    5       -7.405748
    6       -7.400761
    7       -3.242991
    8       -3.090884
    9        0.998174
   10        1.151842
   11        6.966039
   12        7.015995
   13        9.495329
   14       10.131301
   15       10.794608
   16       11.233318
   17       11.767789
   18       12.048992
   19       12.491523
   20       13.155510
   21       13.647743
   22       14.743435
   23       15.157993
   24       16.016373
   25       16.982092
   26       17.312098
   27       18.025806
   28       18.715569
   29       19.077445