       N       E                     dE             d eps       ncg     rms          rms(c)
DAV:   1    -0.780192853836E+01   -0.78019E+01   -0.87860E+03345648   0.270E+02
DAV:   2    -0.393005327769E+02   -0.31499E+02   -0.31390E+02518064   0.418E+01
DAV:   3    -0.393984495126E+02   -0.97917E-01   -0.97916E-01352560   0.294E+00
DAV:   4    -0.393986936306E+02   -0.24412E-03   -0.24412E-03670848   0.155E-01
DAV:   5    -0.393986936402E+02   -0.95538E-08   -0.93800E-08350256   0.661E-04    0.890E+00
DAV:   6    -0.375668621189E+02    0.18318E+01   -0.18578E+00504096   0.228E+00    0.526E+00
DAV:   7    -0.369073719008E+02    0.65949E+00   -0.23388E+00535440   0.250E+00    0.132E+00
DAV:   8    -0.369022097955E+02    0.51621E-02   -0.22309E-02584736   0.323E-01    0.133E-01
DAV:   9    -0.368999073520E+02    0.23024E-02   -0.18903E-03580992   0.649E-02    0.834E-02
DAV:  10    -0.368980005516E+02    0.19068E-02   -0.26401E-03539712   0.629E-02    0.334E-02
DAV:  11    -0.368981013807E+02   -0.10083E-03   -0.59936E-04419472   0.315E-02    0.188E-02
DAV:  12    -0.368981006064E+02    0.77436E-06   -0.10266E-04476880   0.147E-02    0.119E-02
DAV:  13    -0.368984246325E+02   -0.32403E-03   -0.23556E-05447840   0.650E-03    0.634E-03
DAV:  14    -0.368989016612E+02   -0.47703E-03   -0.87486E-05465408   0.849E-03    0.388E-03
DAV:  15    -0.368989493944E+02   -0.47733E-04   -0.25362E-06478704   0.192E-03    0.148E-03
DAV:  16    -0.368989711252E+02   -0.21731E-04   -0.17350E-06416688   0.150E-03    0.197E-04
DAV:  17    -0.368989733417E+02   -0.22165E-05   -0.10670E-07448176   0.315E-04    0.117E-04
DAV:  18    -0.368989739263E+02   -0.58462E-06   -0.21401E-08391488   0.136E-04
   1 F= -.36898974E+02 E0= -.36898938E+02  d E =-.725174E-04
