unknown system                          
           1
     2.467552    0.000049   -0.000002
    -1.233734    2.136926    0.000003
    -0.000019    0.000025   17.105759
   C 
   4
Direct configuration=     1
   0.00001225  0.99998012  0.38302756
   0.33332159  0.66668894  0.38305160
   0.99998770  0.00001988  0.61697244
   0.66667847  0.33331106  0.61694840
