   2   2   0   0
  0.1050029E+02  0.3096817E-09  0.3096817E-09  0.3096817E-09  0.5000000E-15
  1.000000000000000E-004
  CAR 
 unknown system                          
     98.00489455    -12.36263966  301      8.33127300      1.00000000
    -12.363  0.0000E+00  0.0000E+00
    -11.995  0.0000E+00  0.0000E+00
    -11.627  0.0000E+00  0.0000E+00
    -11.259  0.0000E+00  0.0000E+00
    -10.891  0.0000E+00  0.0000E+00
    -10.523  0.0000E+00  0.0000E+00
    -10.155  0.0000E+00  0.0000E+00
     -9.787  0.0000E+00  0.0000E+00
     -9.420  0.0000E+00  0.0000E+00
     -9.052  0.0000E+00  0.0000E+00
     -8.684  0.0000E+00  0.0000E+00
     -8.316  0.0000E+00  0.0000E+00
     -7.948  0.0000E+00  0.0000E+00
     -7.580  0.1159E-05  0.4265E-06
     -7.212  0.2055E-01  0.7562E-02
     -6.844  0.1145E+00  0.4969E-01
     -6.476  0.1612E+00  0.1090E+00
     -6.108  0.1685E+00  0.1710E+00
     -5.741  0.2891E+00  0.2773E+00
     -5.373  0.2595E+00  0.3728E+00
     -5.005  0.3222E+00  0.4913E+00
     -4.637  0.3812E+00  0.6316E+00
     -4.269  0.4677E+00  0.8037E+00
     -3.901  0.4078E+00  0.9537E+00
     -3.533  0.7514E+00  0.1230E+01
     -3.165  0.5588E+00  0.1436E+01
     -2.797  0.6082E+00  0.1659E+01
     -2.430  0.6182E+00  0.1887E+01
     -2.062  0.3072E+00  0.2000E+01
     -1.694  0.3535E-03  0.2000E+01
     -1.326  0.0000E+00  0.2000E+01
     -0.958  0.7912E-16  0.2000E+01
     -0.590  0.2058E-03  0.2000E+01
     -0.222  0.8507E-01  0.2031E+01
      0.146  0.3017E+00  0.2142E+01
      0.514  0.4823E+00  0.2320E+01
      0.881  0.1024E+01  0.2697E+01
      1.249  0.9185E+00  0.3034E+01
      1.617  0.4626E+00  0.3205E+01
      1.985  0.3434E+00  0.3331E+01
      2.353  0.3217E+00  0.3449E+01
      2.721  0.5129E+00  0.3638E+01
      3.089  0.6815E+00  0.3889E+01
      3.457  0.6046E+00  0.4111E+01
      3.825  0.9230E+00  0.4451E+01
      4.192  0.5002E+00  0.4635E+01
      4.560  0.1135E+01  0.5052E+01
      4.928  0.8359E+00  0.5360E+01
      5.296  0.1228E+01  0.5812E+01
      5.664  0.9883E+00  0.6175E+01
      6.032  0.1152E+01  0.6599E+01
      6.400  0.9920E+00  0.6964E+01
      6.768  0.1114E+01  0.7374E+01
      7.136  0.7776E+00  0.7660E+01
      7.504  0.5680E+00  0.7869E+01
      7.871  0.3094E+00  0.7983E+01
      8.239  0.4731E-01  0.8000E+01
      8.607  0.1216E-06  0.8000E+01
      8.975  0.7178E-10  0.8000E+01
      9.343  0.4407E-02  0.8002E+01
      9.711  0.3391E-01  0.8014E+01
     10.079  0.1019E+00  0.8052E+01
     10.447  0.9481E-01  0.8086E+01
     10.815  0.2024E+00  0.8161E+01
     11.182  0.2496E+00  0.8253E+01
     11.550  0.1845E+00  0.8321E+01
     11.918  0.5070E+00  0.8507E+01
     12.286  0.3694E+00  0.8643E+01
     12.654  0.3849E+00  0.8785E+01
     13.022  0.1140E+01  0.9204E+01
     13.390  0.7689E+00  0.9487E+01
     13.758  0.7531E+00  0.9764E+01
     14.126  0.9370E+00  0.1011E+02
     14.493  0.3984E+00  0.1026E+02
     14.861  0.5276E+00  0.1045E+02
     15.229  0.7921E+00  0.1074E+02
     15.597  0.2196E+01  0.1155E+02
     15.965  0.1008E+01  0.1192E+02
     16.333  0.1039E+01  0.1230E+02
     16.701  0.1379E+01  0.1281E+02
     17.069  0.9337E+00  0.1315E+02
     17.437  0.9095E+00  0.1349E+02
     17.804  0.7698E+00  0.1377E+02
     18.172  0.1381E+01  0.1428E+02
     18.540  0.9871E+00  0.1464E+02
     18.908  0.8565E+00  0.1496E+02
     19.276  0.7075E+00  0.1522E+02
     19.644  0.1086E+01  0.1562E+02
     20.012  0.6487E+00  0.1586E+02
     20.380  0.4107E+00  0.1601E+02
     20.748  0.9023E+00  0.1634E+02
     21.116  0.1334E+01  0.1683E+02
     21.483  0.1235E+01  0.1728E+02
     21.851  0.1366E+01  0.1779E+02
     22.219  0.5033E+00  0.1797E+02
     22.587  0.5402E+00  0.1817E+02
     22.955  0.4527E+00  0.1834E+02
     23.323  0.4798E+00  0.1851E+02
     23.691  0.6382E+00  0.1875E+02
     24.059  0.7941E+00  0.1904E+02
     24.427  0.8783E+00  0.1936E+02
     24.794  0.7491E+00  0.1964E+02
     25.162  0.8054E+00  0.1993E+02
     25.530  0.7266E+00  0.2020E+02
     25.898  0.8860E+00  0.2053E+02
     26.266  0.4263E+00  0.2068E+02
     26.634  0.2455E+00  0.2078E+02
     27.002  0.9040E+00  0.2111E+02
     27.370  0.3162E+00  0.2122E+02
     27.738  0.4877E+00  0.2140E+02
     28.105  0.5274E+00  0.2160E+02
     28.473  0.5954E+00  0.2182E+02
     28.841  0.1321E+01  0.2230E+02
     29.209  0.1664E+01  0.2291E+02
     29.577  0.1924E+01  0.2362E+02
     29.945  0.1105E+01  0.2403E+02
     30.313  0.8031E+00  0.2432E+02
     30.681  0.8398E+00  0.2463E+02
     31.049  0.1099E+01  0.2504E+02
     31.416  0.1161E+01  0.2546E+02
     31.784  0.8160E+00  0.2576E+02
     32.152  0.1028E+01  0.2614E+02
     32.520  0.8321E+00  0.2645E+02
     32.888  0.1246E+01  0.2691E+02
     33.256  0.8859E+00  0.2723E+02
     33.624  0.8331E+00  0.2754E+02
     33.992  0.1055E+01  0.2793E+02
     34.360  0.1063E+01  0.2832E+02
     34.728  0.1034E+01  0.2870E+02
     35.095  0.7669E+00  0.2898E+02
     35.463  0.7938E+00  0.2927E+02
     35.831  0.1419E+01  0.2980E+02
     36.199  0.9804E+00  0.3016E+02
     36.567  0.6145E+00  0.3038E+02
     36.935  0.1006E+01  0.3075E+02
     37.303  0.1139E+01  0.3117E+02
     37.671  0.1289E+01  0.3165E+02
     38.039  0.8047E+00  0.3194E+02
     38.406  0.1023E+01  0.3232E+02
     38.774  0.1307E+01  0.3280E+02
     39.142  0.1157E+01  0.3323E+02
     39.510  0.9857E+00  0.3359E+02
     39.878  0.1232E+01  0.3404E+02
     40.246  0.9633E+00  0.3440E+02
     40.614  0.1228E+01  0.3485E+02
     40.982  0.9082E+00  0.3518E+02
     41.350  0.1460E+01  0.3572E+02
     41.717  0.1080E+01  0.3612E+02
     42.085  0.9314E+00  0.3646E+02
     42.453  0.8523E+00  0.3677E+02
     42.821  0.5302E+00  0.3697E+02
     43.189  0.9395E+00  0.3731E+02
     43.557  0.1217E+01  0.3776E+02
     43.925  0.1226E+01  0.3821E+02
     44.293  0.1178E+01  0.3864E+02
     44.661  0.1609E+01  0.3924E+02
     45.028  0.1172E+01  0.3967E+02
     45.396  0.9960E+00  0.4003E+02
     45.764  0.6073E+00  0.4026E+02
     46.132  0.7399E+00  0.4053E+02
     46.500  0.6003E+00  0.4075E+02
     46.868  0.8581E+00  0.4107E+02
     47.236  0.7215E+00  0.4133E+02
     47.604  0.7415E+00  0.4160E+02
     47.972  0.1382E+01  0.4211E+02
     48.340  0.1458E+01  0.4265E+02
     48.707  0.1277E+01  0.4312E+02
     49.075  0.1149E+01  0.4354E+02
     49.443  0.1265E+01  0.4401E+02
     49.811  0.1072E+01  0.4440E+02
     50.179  0.1766E+01  0.4505E+02
     50.547  0.1198E+01  0.4549E+02
     50.915  0.1124E+01  0.4591E+02
     51.283  0.9091E+00  0.4624E+02
     51.651  0.1285E+01  0.4671E+02
     52.018  0.9487E+00  0.4706E+02
     52.386  0.9900E+00  0.4743E+02
     52.754  0.1396E+01  0.4794E+02
     53.122  0.1598E+01  0.4853E+02
     53.490  0.4442E+00  0.4869E+02
     53.858  0.5945E+00  0.4891E+02
     54.226  0.1258E+01  0.4937E+02
     54.594  0.9599E+00  0.4973E+02
     54.962  0.7217E+00  0.4999E+02
     55.329  0.6187E+00  0.5022E+02
     55.697  0.7893E+00  0.5051E+02
     56.065  0.9064E+00  0.5084E+02
     56.433  0.5382E+00  0.5104E+02
     56.801  0.1020E+01  0.5142E+02
     57.169  0.1095E+01  0.5182E+02
     57.537  0.1145E+01  0.5224E+02
     57.905  0.9768E+00  0.5260E+02
     58.273  0.5454E+00  0.5280E+02
     58.640  0.7348E+00  0.5307E+02
     59.008  0.1039E+01  0.5345E+02
     59.376  0.7277E+00  0.5372E+02
     59.744  0.8818E+00  0.5404E+02
     60.112  0.1300E+01  0.5452E+02
     60.480  0.1475E+01  0.5507E+02
     60.848  0.1647E+01  0.5567E+02
     61.216  0.1053E+01  0.5606E+02
     61.584  0.8391E+00  0.5637E+02
     61.952  0.1662E+01  0.5698E+02
     62.319  0.2298E+01  0.5782E+02
     62.687  0.1684E+01  0.5844E+02
     63.055  0.2336E+01  0.5930E+02
     63.423  0.1211E+01  0.5975E+02
     63.791  0.1043E+01  0.6013E+02
     64.159  0.1560E+01  0.6071E+02
     64.527  0.1586E+01  0.6129E+02
     64.895  0.1273E+01  0.6176E+02
     65.263  0.1805E+01  0.6242E+02
     65.630  0.1117E+01  0.6283E+02
     65.998  0.9715E+00  0.6319E+02
     66.366  0.1039E+01  0.6357E+02
     66.734  0.1118E+01  0.6398E+02
     67.102  0.9189E+00  0.6432E+02
     67.470  0.1683E+01  0.6494E+02
     67.838  0.1401E+01  0.6546E+02
     68.206  0.1357E+01  0.6596E+02
     68.574  0.1230E+01  0.6641E+02
     68.941  0.1417E+01  0.6693E+02
     69.309  0.9198E+00  0.6727E+02
     69.677  0.1093E+01  0.6767E+02
     70.045  0.1028E+01  0.6805E+02
     70.413  0.1458E+01  0.6859E+02
     70.781  0.1351E+01  0.6908E+02
     71.149  0.1328E+01  0.6957E+02
     71.517  0.1857E+01  0.7025E+02
     71.885  0.1312E+01  0.7074E+02
     72.252  0.1412E+01  0.7126E+02
     72.620  0.1780E+01  0.7191E+02
     72.988  0.1437E+01  0.7244E+02
     73.356  0.9474E+00  0.7279E+02
     73.724  0.1533E+01  0.7335E+02
     74.092  0.1813E+01  0.7402E+02
     74.460  0.1811E+01  0.7469E+02
     74.828  0.9433E+00  0.7503E+02
     75.196  0.1391E+01  0.7554E+02
     75.563  0.1313E+01  0.7603E+02
     75.931  0.1083E+01  0.7643E+02
     76.299  0.1095E+01  0.7683E+02
     76.667  0.1805E+01  0.7749E+02
     77.035  0.9507E+00  0.7784E+02
     77.403  0.1443E+01  0.7837E+02
     77.771  0.1361E+01  0.7887E+02
     78.139  0.1168E+01  0.7930E+02
     78.507  0.1526E+01  0.7986E+02
     78.875  0.1248E+01  0.8032E+02
     79.242  0.1604E+01  0.8091E+02
     79.610  0.1545E+01  0.8148E+02
     79.978  0.1067E+01  0.8187E+02
     80.346  0.1662E+01  0.8249E+02
     80.714  0.1216E+01  0.8293E+02
     81.082  0.1593E+01  0.8352E+02
     81.450  0.1421E+01  0.8404E+02
     81.818  0.1065E+01  0.8443E+02
     82.186  0.1614E+01  0.8503E+02
     82.553  0.1457E+01  0.8556E+02
     82.921  0.1439E+01  0.8609E+02
     83.289  0.1245E+01  0.8655E+02
     83.657  0.1557E+01  0.8712E+02
     84.025  0.1086E+01  0.8752E+02
     84.393  0.1216E+01  0.8797E+02
     84.761  0.1366E+01  0.8847E+02
     85.129  0.1509E+01  0.8903E+02
     85.497  0.7655E+00  0.8931E+02
     85.864  0.1585E+01  0.8989E+02
     86.232  0.1342E+01  0.9039E+02
     86.600  0.1203E+01  0.9083E+02
     86.968  0.9368E+00  0.9117E+02
     87.336  0.1114E+01  0.9158E+02
     87.704  0.1323E+01  0.9207E+02
     88.072  0.8258E+00  0.9238E+02
     88.440  0.9343E+00  0.9272E+02
     88.808  0.1476E+01  0.9326E+02
     89.175  0.1161E+01  0.9369E+02
     89.543  0.1455E+01  0.9422E+02
     89.911  0.1045E+01  0.9461E+02
     90.279  0.1252E+01  0.9507E+02
     90.647  0.9672E+00  0.9543E+02
     91.015  0.1154E+01  0.9585E+02
     91.383  0.2765E+00  0.9595E+02
     91.751  0.5789E-01  0.9597E+02
     92.119  0.7914E-02  0.9598E+02
     92.487  0.5147E-01  0.9599E+02
     92.854  0.4356E-03  0.9599E+02
     93.222  0.1441E-01  0.9600E+02
     93.590  0.6905E-05  0.9600E+02
     93.958  0.0000E+00  0.9600E+02
     94.326  0.0000E+00  0.9600E+02
     94.694  0.0000E+00  0.9600E+02
     95.062  0.0000E+00  0.9600E+02
     95.430  0.0000E+00  0.9600E+02
     95.798  0.0000E+00  0.9600E+02
     96.165  0.0000E+00  0.9600E+02
     96.533  0.0000E+00  0.9600E+02
     96.901  0.0000E+00  0.9600E+02
     97.269  0.0000E+00  0.9600E+02
     97.637  0.0000E+00  0.9600E+02
     98.005  0.0000E+00  0.9600E+02
