    2    2    1    1
  0.1050029E+02  0.3096817E-09  0.3096817E-09  0.3096817E-09  0.5000000E-15
  1.000000000000000E-004
  CAR 
 unknown system                          
      8     84     48
 
  0.0000000E+00  0.0000000E+00  0.0000000E+00  0.4551661E-03
    1       -7.345934
    2        7.941500
    3        7.941500
    4        7.941501
    5       14.002119
    6       15.146891
    7       15.146891
    8       15.146891
    9       22.361987
   10       22.361987
   11       24.193612
   12       25.096729
   13       25.096729
   14       25.096729
   15       31.239067
   16       41.333552
   17       41.333552
   18       41.333553
   19       49.395319
   20       49.395319
   21       49.395319
   22       50.841657
   23       50.841657
   24       54.842701
   25       54.842701
   26       54.842701
   27       66.670882
   28       67.537016
   29       67.537016
   30       67.537016
   31       70.470707
   32       70.470707
   33       70.470707
   34       70.804998
   35       70.804998
   36       76.654733
   37       76.914163
   38       76.914163
   39       77.767290
   40       77.767290
   41       77.767290
   42       79.230354
   43       79.230354
   44       79.230354
   45       79.854621
   46       79.854621
   47       79.854621
   48       80.351537
 
  0.7692308E-01  0.0000000E+00  0.0000000E+00  0.3641329E-02
    1       -7.231567
    2        7.314621
    3        7.860274
    4        7.860275
    5       14.237512
    6       15.254495
    7       15.297292
    8       15.297292
    9       21.706688
   10       21.706688
   11       24.231193
   12       25.173406
   13       26.112731
   14       26.112731
   15       31.939976
   16       40.793511
   17       41.065215
   18       41.065216
   19       48.115693
   20       48.115693
   21       49.782591
   22       50.447296
   23       50.447296
   24       54.957403
   25       57.035700
   26       57.035700
   27       64.814651
   28       66.910131
   29       66.910131
   30       67.881697
   31       69.179278
   32       69.179278
   33       70.470282
   34       70.470282
   35       70.898537
   36       74.756975
   37       74.756975
   38       76.363274
   39       76.649996
   40       77.558636
   41       78.021382
   42       78.021382
   43       78.865958
   44       78.865958
   45       80.505523
   46       81.074871
   47       81.074871
   48       83.019999
 
  0.1538462E+00  0.0000000E+00  0.0000000E+00  0.3641329E-02
    1       -6.891310
    2        5.861270
    3        7.653925
    4        7.653926
    5       14.196172
    6       15.616142
    7       15.616142
    8       15.992513
    9       20.920832
   10       20.920832
   11       23.608196
   12       26.395951
   13       28.027981
   14       28.027981
   15       33.582301
   16       39.642182
   17       40.087608
   18       40.087608
   19       46.062331
   20       46.062331
   21       50.386697
   22       50.572641
   23       50.572641
   24       55.295978
   25       60.413171
   26       60.413171
   27       62.301415
   28       64.539874
   29       64.539874
   30       67.515894
   31       67.515894
   32       67.531582
   33       68.891673
   34       68.891673
   35       70.811713
   36       73.315491
   37       73.359426
   38       73.359426
   39       75.276961
   40       77.014704
   41       77.928775
   42       77.928775
   43       79.735361
   44       80.240276
   45       80.240276
   46       83.318582
   47       83.318582
   48       84.310484
 
  0.2307692E+00  0.0000000E+00  0.0000000E+00  0.3641329E-02
    1       -6.335318
    2        4.120430
    3        7.400087
    4        7.400088
    5       13.881741
    6       15.773391
    7       15.773391
    8       16.957048
    9       20.850811
   10       20.850811
   11       23.030048
   12       28.240735
   13       30.015924
   14       30.015924
   15       35.201212
   16       38.436298
   17       38.436298
   18       38.995664
   19       44.931165
   20       44.931166
   21       50.127647
   22       50.902662
   23       50.902662
   24       55.837026
   25       60.312692
   26       60.312692
   27       60.704749
   28       62.743573
   29       62.743573
   30       65.827612
   31       66.411002
   32       66.411002
   33       68.784615
   34       68.784615
   35       69.304279
   36       70.593238
   37       73.180733
   38       73.180733
   39       74.048180
   40       76.534619
   41       77.370341
   42       77.370341
   43       79.539336
   44       82.286664
   45       82.286664
   46       84.782125
   47       84.782125
   48       86.589485
 
  0.3076923E+00  0.0000000E+00  0.0000000E+00  0.3641329E-02
    1       -5.588695
    2        2.368804
    3        7.166442
    4        7.166443
    5       13.579129
    6       15.605664
    7       15.605664
    8       17.626179
    9       21.681901
   10       21.681901
   11       22.949305
   12       29.952136
   13       31.100836
   14       31.100836
   15       35.663568
   16       37.408583
   17       37.408583
   18       40.411444
   19       44.480197
   20       44.480198
   21       48.537737
   22       51.254227
   23       51.254227
   24       56.424749
   25       56.424749
   26       56.530056
   27       59.929311
   28       62.581488
   29       62.581488
   30       62.645366
   31       64.621533
   32       64.621533
   33       68.260183
   34       68.511064
   35       71.410940
   36       71.410940
   37       73.408216
   38       73.961123
   39       73.961123
   40       76.222996
   41       76.898526
   42       76.898526
   43       80.049297
   44       84.156324
   45       84.156324
   46       86.882693
   47       86.882693
   48       86.978953
 
  0.3846154E+00  0.0000000E+00  0.0000000E+00  0.3641329E-02
    1       -4.719683
    2        0.787082
    3        6.994445
    4        6.994445
    5       13.364229
    6       15.320946
    7       15.320946
    8       17.880549
    9       23.131515
   10       23.131515
   11       23.383614
   12       30.152224
   13       30.152224
   14       30.518046
   15       36.678925
   16       38.478386
   17       38.478386
   18       42.470476
   19       44.236627
   20       44.236627
   21       46.847652
   22       51.082328
   23       51.082328
   24       53.406111
   25       53.406111
   26       56.661343
   27       57.259386
   28       62.071073
   29       62.071073
   30       62.225524
   31       63.211274
   32       63.211274
   33       66.435715
   34       68.167410
   35       72.444213
   36       72.444213
   37       72.731560
   38       74.963254
   39       74.963254
   40       76.068003
   41       79.005853
   42       79.005853
   43       80.723334
   44       85.798588
   45       85.798588
   46       87.893155
   47       89.386625
   48       89.386625
 
  0.4615385E+00  0.0000000E+00  0.0000000E+00  0.3641329E-02
    1       -3.967054
    2       -0.332833
    3        6.904552
    4        6.904552
    5       13.255567
    6       15.134011
    7       15.134011
    8       17.914355
    9       23.881292
   10       24.680586
   11       24.680586
   12       28.477356
   13       28.477356
   14       30.223781
   15       38.940873
   16       40.265826
   17       40.265826
   18       41.500760
   19       43.917836
   20       43.917836
   21       48.398992
   22       49.557947
   23       49.557948
   24       52.622740
   25       52.755967
   26       52.755967
   27       57.781304
   28       61.750413
   29       61.750413
   30       62.428066
   31       62.428066
   32       62.769798
   33       65.365859
   34       67.965731
   35       72.268330
   36       72.741012
   37       72.741012
   38       74.711539
   39       74.711539
   40       76.004220
   41       81.134481
   42       83.285308
   43       83.285308
   44       87.055992
   45       87.055992
   46       89.423296
   47       90.048756
   48       90.048756
 
  0.7692308E-01  0.7692308E-01  0.0000000E+00  0.2730997E-02
    1       -7.193450
    2        7.469006
    3        7.651004
    4        7.651004
    5       14.361667
    6       14.803344
    7       15.574275
    8       15.574275
    9       20.696213
   10       22.534230
   11       24.777501
   12       25.404220
   13       25.404220
   14       26.435940
   15       32.225780
   16       40.684265
   17       40.684266
   18       41.228529
   19       48.144077
   20       48.645873
   21       48.645873
   22       49.034992
   23       51.539598
   24       56.333285
   25       56.333285
   26       57.731942
   27       64.303933
   28       66.476397
   29       66.476397
   30       68.147349
   31       68.542949
   32       69.688204
   33       70.464695
   34       70.464695
   35       70.488581
   36       75.071496
   37       75.077804
   38       75.077804
   39       75.745601
   40       77.376397
   41       77.382981
   42       77.382981
   43       80.356380
   44       80.401305
   45       81.029939
   46       81.029939
   47       81.609198
   48       82.500634
 
  0.1538462E+00  0.7692308E-01  0.0000000E+00  0.1092399E-01
    1       -6.928348
    2        6.341931
    3        7.352213
    4        7.577116
    5       14.303864
    6       14.959477
    7       16.027468
    8       16.112465
    9       19.764683
   10       22.197025
   11       24.653578
   12       26.172792
   13       26.613708
   14       27.993647
   15       33.582295
   16       39.635353
   17       39.672491
   18       41.055570
   19       45.886201
   20       46.888036
   21       48.811372
   22       49.693609
   23       51.707359
   24       56.927820
   25       58.722394
   26       60.605556
   27       61.970724
   28       65.183204
   29       65.259433
   30       66.234151
   31       67.642614
   32       68.493577
   33       68.633109
   34       69.839897
   35       70.882570
   36       72.589894
   37       73.548842
   38       74.829598
   39       75.822589
   40       76.106968
   41       78.303645
   42       78.380057
   43       79.211819
   44       80.025307
   45       81.518995
   46       81.802536
   47       83.393884
   48       83.457789
 
  0.2307692E+00  0.7692308E-01  0.0000000E+00  0.1092399E-01
    1       -6.443778
    2        4.720017
    3        7.055289
    4        7.373475
    5       14.051752
    6       15.326517
    7       16.342303
    8       16.605646
    9       19.674658
   10       21.969124
   11       23.968675
   12       27.798455
   13       28.555159
   14       30.095155
   15       35.005410
   16       37.884711
   17       38.629412
   18       40.535101
   19       44.563920
   20       45.170739
   21       49.173650
   22       50.042696
   23       51.659538
   24       57.328746
   25       59.334504
   26       60.582332
   27       62.177142
   28       63.076574
   29       63.159449
   30       65.424863
   31       66.277385
   32       66.292748
   33       67.583057
   34       69.238901
   35       70.364325
   36       71.553302
   37       72.908623
   38       73.999691
   39       74.266005
   40       75.793157
   41       77.189432
   42       78.612475
   43       80.396371
   44       81.411476
   45       82.152335
   46       82.398941
   47       83.876741
   48       85.964639
 
  0.3076923E+00  0.7692308E-01  0.0000000E+00  0.1092399E-01
    1       -5.758520
    2        2.990011
    3        6.825262
    4        7.077754
    5       13.779429
    6       15.321612
    7       16.270309
    8       17.193688
    9       20.388891
   10       22.544499
   11       23.647757
   12       29.513276
   13       30.116791
   14       31.853922
   15       35.171220
   16       36.285622
   17       38.820119
   18       40.427618
   19       44.025960
   20       44.453722
   21       49.097793
   22       49.643881
   23       51.410059
   24       56.373579
   25       57.543994
   26       59.430041
   27       59.837087
   28       61.703819
   29       62.091391
   30       63.749875
   31       64.880689
   32       65.238962
   33       67.684436
   34       70.158130
   35       70.648558
   36       71.525149
   37       71.760338
   38       73.863661
   39       74.906934
   40       75.472354
   41       76.403281
   42       79.153845
   43       81.018659
   44       82.245995
   45       83.559208
   46       84.325753
   47       85.481443
   48       89.282718
 
  0.3846154E+00  0.7692308E-01  0.0000000E+00  0.1092399E-01
    1       -4.920612
    2        1.354076
    3        6.696990
    4        6.775705
    5       13.572890
    6       15.035312
    7       15.939563
    8       17.895046
    9       21.399667
   10       23.783511
   11       23.936025
   12       29.776392
   13       30.193857
   14       32.063323
   15       35.791560
   16       36.787363
   17       39.346664
   18       41.811461
   19       43.789418
   20       44.665798
   21       47.243463
   22       50.178291
   23       50.578615
   24       53.833769
   25       54.880535
   26       58.384726
   27       58.715919
   28       60.023902
   29       60.660138
   30       62.523137
   31       63.678566
   32       64.490193
   33       68.073629
   34       69.341136
   35       69.988740
   36       72.197008
   37       72.715838
   38       74.309696
   39       75.711481
   40       76.398082
   41       78.822344
   42       79.516467
   43       81.487150
   44       83.407685
   45       84.700535
   46       85.876357
   47       89.002420
   48       91.098959
 
  0.4615385E+00  0.7692308E-01  0.0000000E+00  0.1092399E-01
    1       -4.084499
    2        0.041616
    3        6.523925
    4        6.682812
    5       13.478695
    6       14.823056
    7       15.604711
    8       18.298958
    9       22.633575
   10       24.548212
   11       25.022688
   12       28.384172
   13       29.427508
   14       31.221577
   15       37.737731
   16       38.899856
   17       40.571888
   18       41.804822
   19       43.646347
   20       44.306853
   21       47.681780
   22       49.172949
   23       50.539328
   24       51.694675
   25       52.960790
   26       54.501070
   27       58.921026
   28       59.617148
   29       60.037688
   30       62.524928
   31       62.920437
   32       64.272615
   33       68.245759
   34       68.286277
   35       69.706999
   36       71.821986
   37       72.289009
   38       74.537229
   39       76.057044
   40       79.157106
   41       80.544986
   42       81.896005
   43       83.092429
   44       84.933154
   45       86.167706
   46       87.112907
   47       90.679279
   48       90.938692
 
 -0.4615385E+00  0.7692308E-01  0.0000000E+00  0.1092399E-01
    1       -3.764829
    2       -0.398861
    3        6.358009
    4        6.779251
    5       13.505346
    6       14.803056
    7       15.409264
    8       18.405573
    9       23.593744
   10       24.420096
   11       25.013562
   12       28.515260
   13       28.859961
   14       30.678328
   15       38.893099
   16       40.281046
   17       40.491122
   18       41.190850
   19       43.672080
   20       43.809177
   21       48.965238
   22       49.104234
   23       49.779379
   24       51.350720
   25       52.060797
   26       53.062483
   27       58.817118
   28       59.686777
   29       60.019040
   30       62.510929
   31       62.640467
   32       64.339939
   33       67.921213
   34       68.515769
   35       69.641082
   36       71.324548
   37       72.155070
   38       74.318979
   39       76.576023
   40       79.278671
   41       81.550976
   42       83.122122
   43       83.412075
   44       86.211302
   45       87.761318
   46       88.162130
   47       89.059641
   48       89.935777
 
 -0.3846154E+00  0.7692308E-01  0.0000000E+00  0.1092399E-01
    1       -4.343370
    2        0.421900
    3        6.301138
    4        6.970690
    5       13.634272
    6       15.004209
    7       15.398977
    8       18.287738
    9       22.661700
   10       23.340676
   11       25.013064
   12       28.648630
   13       30.664296
   14       30.948196
   15       36.628244
   16       38.730453
   17       39.978410
   18       42.020929
   19       44.221202
   20       44.304063
   21       47.180898
   22       49.225881
   23       51.117963
   24       51.895151
   25       52.962177
   26       56.012861
   27       58.870586
   28       60.030015
   29       60.104996
   30       62.545775
   31       62.886890
   32       64.457248
   33       68.463247
   34       68.561111
   35       70.108676
   36       70.914947
   37       72.410385
   38       74.061384
   39       76.761329
   40       79.191182
   41       79.441301
   42       80.864308
   43       82.115645
   44       83.145967
   45       86.868896
   46       88.960817
   47       90.191539
   48       90.872942
 
 -0.3076923E+00  0.7692308E-01  0.0000000E+00  0.1092399E-01
    1       -5.212075
    2        1.879520
    3        6.367055
    4        7.229970
    5       13.846484
    6       15.378936
    7       15.537356
    8       17.859415
    9       21.052098
   10       22.679006
   11       24.231015
   12       29.509137
   13       30.991303
   14       32.018904
   15       34.872687
   16       37.148273
   17       38.921321
   18       41.318322
   19       44.115690
   20       44.192707
   21       47.901242
   22       49.974101
   23       51.254872
   24       53.925438
   25       55.997923
   26       58.712826
   27       59.521410
   28       60.782921
   29       60.892091
   30       62.649970
   31       63.570059
   32       65.222194
   33       68.614145
   34       69.590467
   35       70.448539
   36       70.787312
   37       72.618395
   38       73.913817
   39       73.944452
   40       77.229205
   41       78.788582
   42       79.399231
   43       80.474368
   44       82.061502
   45       84.595129
   46       87.397793
   47       88.839514
   48       89.135232
 
 -0.2307692E+00  0.7692308E-01  0.0000000E+00  0.1092399E-01
    1       -6.007832
    2        3.562420
    3        6.559700
    4        7.515429
    5       14.132196
    6       15.667604
    7       15.709031
    8       17.159420
    9       20.007365
   10       21.929908
   11       23.955659
   12       28.639928
   13       29.926403
   14       31.598228
   15       34.734405
   16       37.317551
   17       39.299401
   18       39.519036
   19       44.277807
   20       44.359736
   21       49.718175
   22       49.936075
   23       50.938271
   24       56.926493
   25       58.803240
   26       59.117806
   27       60.852324
   28       61.935312
   29       62.587913
   30       64.344521
   31       64.956130
   32       66.603870
   33       68.297714
   34       68.722672
   35       70.860328
   36       70.918830
   37       72.221623
   38       72.768202
   39       73.872057
   40       74.888373
   41       79.315717
   42       79.410244
   43       79.906666
   44       81.311216
   45       82.000947
   46       84.725868
   47       87.420465
   48       87.612205
 
 -0.1538462E+00  0.7692308E-01  0.0000000E+00  0.1092399E-01
    1       -6.629249
    2        5.258395
    3        6.875098
    4        7.765454
    5       14.455576
    6       15.477914
    7       15.566539
    8       16.601691
    9       19.855283
   10       21.416100
   11       24.419744
   12       26.888377
   13       27.888015
   14       29.843776
   15       34.464114
   16       38.199730
   17       39.580101
   18       40.464071
   19       45.038023
   20       45.294570
   21       49.804383
   22       50.120373
   23       50.937868
   24       57.277505
   25       60.402314
   26       60.657715
   27       62.098600
   28       62.480580
   29       64.528107
   30       65.420936
   31       66.822022
   32       67.400693
   33       67.690639
   34       69.485465
   35       70.360606
   36       71.626461
   37       72.582153
   38       73.930057
   39       74.365532
   40       75.731166
   41       78.831124
   42       79.097242
   43       80.111999
   44       80.516661
   45       80.708449
   46       82.046689
   47       84.842027
   48       85.092182
 
 -0.7692308E-01  0.7692308E-01  0.0000000E+00  0.5461994E-02
    1       -7.041860
    2        6.651905
    3        7.339455
    4        7.901182
    5       14.527446
    6       15.072233
    7       15.333598
    8       16.022127
    9       20.554441
   10       21.603284
   11       24.834690
   12       25.551369
   13       26.156149
   14       27.844669
   15       32.958127
   16       39.806687
   17       40.432492
   18       41.041380
   19       46.571527
   20       47.020937
   21       49.793834
   22       50.038699
   23       50.612732
   24       56.748951
   25       57.542384
   26       59.792254
   27       63.086017
   28       65.485422
   29       65.915646
   30       67.486646
   31       67.784763
   32       68.661229
   33       68.955582
   34       70.336705
   35       70.835498
   36       72.773720
   37       73.607520
   38       75.168134
   39       76.081873
   40       77.546915
   41       77.954887
   42       78.014836
   43       79.517381
   44       80.389996
   45       80.416689
   46       81.356114
   47       81.860829
   48       82.882952
 
  0.1538462E+00  0.1538462E+00  0.0000000E+00  0.2730997E-02
    1       -6.739395
    2        6.357794
    3        6.971950
    4        6.971950
    5       13.613017
    6       15.149679
    7       16.647957
    8       16.647957
    9       18.833922
   10       23.048362
   11       26.322953
   12       26.322953
   13       26.425061
   14       27.832196
   15       34.597586
   16       38.948600
   17       38.948600
   18       41.287340
   19       44.377269
   20       47.706622
   21       47.706622
   22       48.790079
   23       52.549960
   24       58.759593
   25       58.759593
   26       60.199092
   27       61.868166
   28       64.099332
   29       64.099332
   30       65.103962
   31       66.946396
   32       68.877618
   33       69.404095
   34       69.404095
   35       70.045128
   36       73.492759
   37       73.492759
   38       73.963435
   39       74.165909
   40       76.290147
   41       76.290147
   42       79.223509
   43       80.565712
   44       81.276459
   45       81.276459
   46       82.592992
   47       83.400015
   48       84.304415
 
  0.2307692E+00  0.1538462E+00  0.0000000E+00  0.1092399E-01
    1       -6.329617
    2        5.181352
    3        6.617471
    4        6.760148
    5       13.221855
    6       15.175281
    7       16.889497
    8       17.186572
    9       19.053485
   10       23.131255
   11       25.863936
   12       27.618638
   13       27.907699
   14       29.479651
   15       35.549415
   16       37.453030
   17       38.003940
   18       41.746663
   19       42.913220
   20       46.165281
   21       47.612063
   22       49.461210
   23       52.555040
   24       57.778640
   25       58.917845
   26       59.427212
   27       62.372340
   28       63.177814
   29       64.164453
   30       64.207353
   31       65.103827
   32       67.469896
   33       67.977189
   34       69.845921
   35       70.277359
   36       72.238196
   37       72.672197
   38       74.125187
   39       74.694717
   40       74.873402
   41       77.562980
   42       78.834584
   43       80.314708
   44       80.540611
   45       81.928613
   46       82.256052
   47       84.284240
   48       85.675569
 
  0.3076923E+00  0.1538462E+00  0.0000000E+00  0.1092399E-01
    1       -5.713619
    2        3.626420
    3        6.356116
    4        6.422361
    5       13.044289
    6       15.455903
    7       16.660648
    8       17.331238
    9       20.103598
   10       23.523645
   11       25.341692
   12       29.290601
   13       29.385769
   14       31.776282
   15       34.932630
   16       35.607716
   17       38.488198
   18       42.362446
   19       42.436772
   20       44.665599
   21       47.784056
   22       49.252599
   23       51.718655
   24       55.861144
   25       58.213669
   26       58.318879
   27       61.263019
   28       62.124021
   29       62.667257
   30       63.747041
   31       65.238811
   32       65.736103
   33       66.322125
   34       70.279697
   35       70.526784
   36       71.657735
   37       73.424845
   38       73.524872
   39       75.218628
   40       75.357910
   41       78.531729
   42       78.772042
   43       80.926424
   44       81.105703
   45       82.135629
   46       82.775529
   47       85.849334
   48       88.511518
 
  0.3846154E+00  0.1538462E+00  0.0000000E+00  0.1092399E-01
    1       -4.927112
    2        2.040674
    3        5.981158
    4        6.223067
    5       12.891029
    6       15.680381
    7       17.032968
    8       17.077924
    9       21.001423
   10       24.527232
   11       25.291005
   12       29.592604
   13       30.150740
   14       33.300171
   15       34.754045
   16       35.385068
   17       39.704550
   18       41.914379
   19       42.259936
   20       45.261818
   21       47.702506
   22       48.101992
   23       50.360541
   24       54.097966
   25       56.892594
   26       57.425442
   27       58.155561
   28       60.903882
   29       61.876911
   30       62.141267
   31       64.341451
   32       64.975481
   33       66.538274
   34       69.820181
   35       70.298606
   36       72.400466
   37       74.022977
   38       74.579731
   39       75.384877
   40       77.429315
   41       79.028572
   42       79.506936
   43       81.718284
   44       82.180242
   45       83.208684
   46       85.506275
   47       86.838618
   48       89.120946
 
  0.4615385E+00  0.1538462E+00  0.0000000E+00  0.1092399E-01
    1       -4.073883
    2        0.647820
    3        5.557957
    4        6.231150
    5       12.851768
    6       15.538675
    7       16.685401
    8       18.078563
    9       21.586519
   10       25.372023
   11       25.622855
   12       28.635889
   13       29.668855
   14       33.208059
   15       36.382229
   16       37.334008
   17       40.687532
   18       41.559616
   19       42.336980
   20       44.650406
   21       47.519370
   22       48.556539
   23       49.555931
   24       52.858056
   25       53.703107
   26       56.573610
   27       56.795458
   28       57.571477
   29       61.809111
   30       61.926981
   31       64.469590
   32       65.148052
   33       66.081335
   34       69.548527
   35       69.869392
   36       72.560594
   37       73.270950
   38       74.563045
   39       78.043801
   40       78.192890
   41       80.683695
   42       82.585014
   43       82.595932
   44       83.417908
   45       83.651623
   46       87.498625
   47       88.453297
   48       89.728235
 
 -0.4615385E+00  0.1538462E+00  0.0000000E+00  0.1092399E-01
    1       -3.514816
    2       -0.132032
    3        5.227823
    4        6.376511
    5       13.006126
    6       15.401173
    7       16.349592
    8       18.859560
    9       22.246216
   10       24.314078
   11       25.741735
   12       29.273723
   13       29.450989
   14       32.384330
   15       37.861099
   16       39.363028
   17       39.461953
   18       42.345476
   19       42.864407
   20       43.366203
   21       47.833072
   22       49.049559
   23       50.395192
   24       51.353022
   25       51.950727
   26       54.084588
   27       55.976887
   28       57.772565
   29       61.931417
   30       61.986429
   31       64.099316
   32       65.349655
   33       66.276919
   34       69.521254
   35       69.630872
   36       72.090853
   37       72.534250
   38       74.301749
   39       78.885440
   40       79.509695
   41       81.767927
   42       82.489707
   43       83.402397
   44       85.232940
   45       86.939925
   46       87.305963
   47       89.159719
   48       89.349150
 
 -0.3846154E+00  0.1538462E+00  0.0000000E+00  0.1092399E-01
    1       -3.829298
    2        0.300272
    3        5.036658
    4        6.639941
    5       13.366254
    6       15.360666
    7       16.152163
    8       18.823735
    9       22.432596
   10       23.023116
   11       25.784831
   12       28.966451
   13       31.269163
   14       31.942635
   15       36.015783
   16       39.683540
   17       40.163715
   18       40.719193
   19       44.251236
   20       44.302938
   21       47.661300
   22       48.738327
   23       50.181614
   24       50.488012
   25       52.039871
   26       55.994826
   27       56.275695
   28       58.529122
   29       62.129198
   30       62.173324
   31       63.826467
   32       65.119199
   33       66.806276
   34       69.390207
   35       69.446756
   36       72.093491
   37       72.430227
   38       73.929219
   39       78.415302
   40       78.547120
   41       80.280612
   42       82.177580
   43       83.909677
   44       85.479831
   45       86.362284
   46       88.727865
   47       90.206156
   48       90.374315
 
 -0.3076923E+00  0.1538462E+00  0.0000000E+00  0.1092399E-01
    1       -4.648168
    2        1.558729
    3        5.019869
    4        6.984308
    5       13.892362
    6       15.434929
    7       16.086489
    8       18.101537
    9       20.731765
   10       23.320596
   11       25.991501
   12       28.692768
   13       31.620526
   14       32.790237
   15       34.198434
   16       37.631849
   17       40.106671
   18       41.302693
   19       43.909209
   20       44.619533
   21       47.525617
   22       47.889635
   23       50.793987
   24       51.894925
   25       55.052738
   26       56.754937
   27       58.224758
   28       60.790535
   29       62.183662