 vasp.5.3.5 31Mar14 (build Oct 01 2015 16:19:09) complex                        
  
 executed on             LinuxIFC date 2023.05.07  18:17:16
 running on   48 total cores
 distrk:  each k-point on   48 cores,    1 groups
 distr:  one band on NCORES_PER_BAND=   1 cores,   48 groups


--------------------------------------------------------------------------------------------------------


 INCAR:
 POTCAR:    PAW_PBE Si 05Jan2001                  
 POTCAR:    PAW_PBE C 08Apr2002                   

 ----------------------------------------------------------------------------- 
|                                                                             |
|           W    W    AA    RRRRR   N    N  II  N    N   GGGG   !!!           |
|           W    W   A  A   R    R  NN   N  II  NN   N  G    G  !!!           |
|           W    W  A    A  R    R  N N  N  II  N N  N  G       !!!           |
|           W WW W  AAAAAA  RRRRR   N  N N  II  N  N N  G  GGG   !            |
|           WW  WW  A    A  R   R   N   NN  II  N   NN  G    G                |
|           W    W  A    A  R    R  N    N  II  N    N   GGGG   !!!           |
|                                                                             |
|      For optimal performance we recommend to set                            |
|        NCORE= 4 - approx SQRT( number of cores)                             |
|      NCORE specifies how many cores store one orbital (NPAR=cpu/NCORE).     |
|      This setting can  greatly improve the performance of VASP for DFT.     |
|      The default, NPAR=number of cores might be grossly inefficient         |
|      on modern multi-core architectures or massively parallel machines.     |
|      Do your own testing !!!!                                               |
|      Unfortunately you need to use the default for GW and RPA calculations. |
|      (for HF NCORE is supported but not extensively tested yet)             |
|                                                                             |
 ----------------------------------------------------------------------------- 

 POTCAR:    PAW_PBE Si 05Jan2001                  
   VRHFIN =Si: s2p2                                                             
   LEXCH  = PE                                                                  
   EATOM  =   103.0669 eV,    7.5752 Ry                                         
                                                                                
   TITEL  = PAW_PBE Si 05Jan2001                                                
   LULTRA =        F    use ultrasoft PP ?                                      
   IUNSCR =        1    unscreen: 0-lin 1-nonlin 2-no                           
   RPACOR =    1.500    partial core radius                                     
   POMASS =   28.085; ZVAL   =    4.000    mass and valenz                      
   RCORE  =    1.900    outmost cutoff radius                                   
   RWIGS  =    2.480; RWIGS  =    1.312    wigner-seitz radius (au A)           
   ENMAX  =  245.345; ENMIN  =  184.009 eV                                      
   ICORE  =        2    local potential                                         
   LCOR   =        T    correct aug charges                                     
   LPAW   =        T    paw PP                                                  
   EAUG   =  322.069                                                            
   DEXC   =    0.000                                                            
   RMAX   =    1.950    core radius for proj-oper                               
   RAUG   =    1.300    factor for augmentation sphere                          
   RDEP   =    1.993    radius for radial grids                                 
   RDEPT  =    1.837    core radius for aug-charge                              
                                                                                
   Atomic configuration                                                         
    6 entries                                                                   
     n  l   j            E        occ.                                          
     1  0  0.50     -1785.8828   2.0000                                         
     2  0  0.50      -139.4969   2.0000                                         
     2  1  1.50       -95.5546   6.0000                                         
     3  0  0.50       -10.8127   2.0000                                         
     3  1  0.50        -4.0811   2.0000                                         
     3  2  1.50        -4.0817   0.0000                                         
   Description                                                                  
     l       E           TYP  RCUT    TYP  RCUT                                 
     0    -10.8127223     23  1.900                                             
     0     -7.6451159     23  1.900                                             
     1     -4.0811372     23  1.900                                             
     1      2.4879257     23  1.900                                             
     2     -4.0817478      7  1.900                                             
  local pseudopotential read in
  partial core-charges read in
  partial kinetic energy density read in
  atomic valenz-charges read in
  non local Contribution for L=           0  read in
    real space projection operators read in
  non local Contribution for L=           0  read in
    real space projection operators read in
  non local Contribution for L=           1  read in
    real space projection operators read in
  non local Contribution for L=           1  read in
    real space projection operators read in
    PAW grid and wavefunctions read in
 
   number of l-projection  operators is LMAX  =           4
   number of lm-projection operators is LMMAX =           8
 
 POTCAR:    PAW_PBE C 08Apr2002                   
   VRHFIN =C: s2p2                                                              
   LEXCH  = PE                                                                  
   EATOM  =   147.1560 eV,   10.8157 Ry                                         
                                                                                
   TITEL  = PAW_PBE C 08Apr2002                                                 
   LULTRA =        F    use ultrasoft PP ?                                      
   IUNSCR =        1    unscreen: 0-lin 1-nonlin 2-no                           
   RPACOR =    1.200    partial core radius                                     
   POMASS =   12.011; ZVAL   =    4.000    mass and valenz                      
   RCORE  =    1.500    outmost cutoff radius                                   
   RWIGS  =    1.630; RWIGS  =    0.863    wigner-seitz radius (au A)           
   ENMAX  =  400.000; ENMIN  =  300.000 eV                                      
   ICORE  =        2    local potential                                         
   LCOR   =        T    correct aug charges                                     
   LPAW   =        T    paw PP                                                  
   EAUG   =  644.873                                                            
   DEXC   =    0.000                                                            
   RMAX   =    1.529    core radius for proj-oper                               
   RAUG   =    1.300    factor for augmentation sphere                          
   RDEP   =    1.501    radius for radial grids                                 
   RDEPT  =    1.300    core radius for aug-charge                              
                                                                                
   Atomic configuration                                                         
    4 entries                                                                   
     n  l   j            E        occ.                                          
     1  0  0.50      -273.3789   2.0000                                         
     2  0  0.50       -13.7508   2.0000                                         
     2  1  0.50        -5.2854   2.0000                                         
     3  2  1.50        -5.4423   0.0000                                         
   Description                                                                  
     l       E           TYP  RCUT    TYP  RCUT                                 
     0    -13.7508458     23  1.200                                             
     0     -8.2022199     23  1.200                                             
     1     -5.2854383     23  1.500                                             
     1     34.0145650     23  1.500                                             
     2     -5.4423304      7  1.500                                             
  local pseudopotential read in
  partial core-charges read in
  partial kinetic energy density read in
  atomic valenz-charges read in
  non local Contribution for L=           0  read in
    real space projection operators read in
  non local Contribution for L=           0  read in
    real space projection operators read in
  non local Contribution for L=           1  read in
    real space projection operators read in
  non local Contribution for L=           1  read in
    real space projection operators read in
    PAW grid and wavefunctions read in
 
   number of l-projection  operators is LMAX  =           4
   number of lm-projection operators is LMMAX =           8
 
  PAW_PBE Si 05Jan2001                  :
 energy of atom  1       EATOM= -103.0669
 kinetic energy error for atom=    0.0005 (will be added to EATOM!!)
  PAW_PBE C 08Apr2002                   :
 energy of atom  2       EATOM= -147.1560
 kinetic energy error for atom=    0.0071 (will be added to EATOM!!)
 
 
 POSCAR: Si4 C4                                  
  positions in direct lattice
  velocities in cartesian coordinates
 exchange correlation table for  LEXCH =        8
   RHO(1)=    0.500       N(1)  =     2000
   RHO(2)=  100.500       N(2)  =     4000
 


--------------------------------------------------------------------------------------------------------


 ion  position               nearest neighbor table
   1  0.250  0.250  0.250-   2 1.90   2 1.90   2 1.90   2 1.90
   2  0.000  0.000  0.000-   1 1.90   1 1.90   1 1.90   1 1.90
 
  LATTYP: Found a face centered cubic cell.
 ALAT       =     4.3795600000
  
  Lattice vectors:
  
 A1 = (   0.0000000000,   2.1897800000,   2.1897800000)
 A2 = (   2.1897800000,   0.0000000000,   2.1897800000)
 A3 = (   2.1897800000,   2.1897800000,   0.0000000000)


Analysis of symmetry for initial positions (statically):
=====================================================================
 Subroutine PRICEL returns:
 Original cell was already a primitive cell.
 

 Routine SETGRP: Setting up the symmetry group for a 
 face centered cubic supercell.


 Subroutine GETGRP returns: Found 24 space group operations
 (whereof 24 operations were pure point group operations)
 out of a pool of 48 trial point group operations.


The static configuration has the point symmetry T_d .


Analysis of symmetry for dynamics (positions and initial velocities):
=====================================================================
 Subroutine PRICEL returns:
 Original cell was already a primitive cell.
 

 Routine SETGRP: Setting up the symmetry group for a 
 face centered cubic supercell.


 Subroutine GETGRP returns: Found 24 space group operations
 (whereof 24 operations were pure point group operations)
 out of a pool of 48 trial point group operations.


The dynamic configuration has the point symmetry T_d .
 
 
 KPOINTS: Automatic mesh                          

Automatic generation of k-mesh.
Space group operators:
 irot       det(A)        alpha          n_x          n_y          n_z        tau_x        tau_y        tau_z
    1     1.000000     0.000000     1.000000     0.000000     0.000000     0.000000     0.000000     0.000000
    2     1.000000   120.000000    -0.577350    -0.577350    -0.577350     0.000000     0.000000     0.000000
    3     1.000000   120.000000     0.577350     0.577350     0.577350     0.000000     0.000000     0.000000
    4    -1.000000    90.000000     0.000000     0.000000    -1.000000     0.000000     0.000000     0.000000
    5    -1.000000   180.000000     0.000000     0.707107     0.707107     0.000000     0.000000     0.000000
    6    -1.000000    90.000000     0.000000     1.000000     0.000000     0.000000     0.000000     0.000000
    7     1.000000   179.999999     0.000000     0.000000     1.000000     0.000000     0.000000     0.000000
    8     1.000000   120.000000    -0.577350     0.577350     0.577350     0.000000     0.000000     0.000000
    9     1.000000   120.000000    -0.577350     0.577350    -0.577350     0.000000     0.000000     0.000000
   10    -1.000000    90.000000     0.000000     0.000000     1.000000     0.000000     0.000000     0.000000
   11    -1.000000    90.000000    -1.000000     0.000000     0.000000     0.000000     0.000000     0.000000
   12    -1.000000   180.000000     0.707107     0.000000     0.707107     0.000000     0.000000     0.000000
   13     1.000000   120.000000     0.577350    -0.577350     0.577350     0.000000     0.000000     0.000000
   14     1.000000   120.000000    -0.577350    -0.577350     0.577350     0.000000     0.000000     0.000000
   15     1.000000   180.000000     1.000000     0.000000     0.000000     0.000000     0.000000     0.000000
   16    -1.000000    90.000000     0.000000    -1.000000     0.000000     0.000000     0.000000     0.000000
   17    -1.000000   180.000000     0.707107     0.707107     0.000000     0.000000     0.000000     0.000000
   18    -1.000000    90.000000     1.000000     0.000000     0.000000     0.000000     0.000000     0.000000
   19     1.000000   120.000000     0.577350    -0.577350    -0.577350     0.000000     0.000000     0.000000
   20     1.000000   180.000000     0.000000     1.000000     0.000000     0.000000     0.000000     0.000000
   21     1.000000   120.000000     0.577350     0.577350    -0.577350     0.000000     0.000000     0.000000
   22    -1.000000   180.000000     0.000000    -0.707107     0.707107     0.000000     0.000000     0.000000
   23    -1.000000   180.000000     0.707107    -0.707107     0.000000     0.000000     0.000000     0.000000
   24    -1.000000   180.000000     0.707107     0.000000    -0.707107     0.000000     0.000000     0.000000
 
 Subroutine IBZKPT returns following result:
 ===========================================
 
 Found     84 irreducible k-points:
 
 Following reciprocal coordinates:
            Coordinates               Weight
  0.000000  0.000000  0.000000      1.000000
  0.076923  0.000000  0.000000      8.000000
  0.153846  0.000000  0.000000      8.000000
  0.230769  0.000000  0.000000      8.000000
  0.307692  0.000000  0.000000      8.000000
  0.384615  0.000000  0.000000      8.000000
  0.461538  0.000000  0.000000      8.000000
  0.076923  0.076923  0.000000      6.000000
  0.153846  0.076923  0.000000     24.000000
  0.230769  0.076923  0.000000     24.000000
  0.307692  0.076923  0.000000     24.000000
  0.384615  0.076923  0.000000     24.000000
  0.461538  0.076923  0.000000     24.000000
 -0.461538  0.076923  0.000000     24.000000
 -0.384615  0.076923  0.000000     24.000000
 -0.307692  0.076923  0.000000     24.000000
 -0.230769  0.076923  0.000000     24.000000
 -0.153846  0.076923  0.000000     24.000000
 -0.076923  0.076923  0.000000     12.000000
  0.153846  0.153846  0.000000      6.000000
  0.230769  0.153846  0.000000     24.000000
  0.307692  0.153846  0.000000     24.000000
  0.384615  0.153846  0.000000     24.000000
  0.461538  0.153846  0.000000     24.000000
 -0.461538  0.153846  0.000000     24.000000
 -0.384615  0.153846  0.000000     24.000000
 -0.307692  0.153846  0.000000     24.000000
 -0.230769  0.153846  0.000000     24.000000
 -0.153846  0.153846  0.000000     12.000000
  0.230769  0.230769  0.000000      6.000000
  0.307692  0.230769  0.000000     24.000000
  0.384615  0.230769  0.000000     24.000000
  0.461538  0.230769  0.000000     24.000000
 -0.461538  0.230769  0.000000     24.000000
 -0.384615  0.230769  0.000000     24.000000
 -0.307692  0.230769  0.000000     24.000000
 -0.230769  0.230769  0.000000     12.000000
  0.307692  0.307692  0.000000      6.000000
  0.384615  0.307692  0.000000     24.000000
  0.461538  0.307692  0.000000     24.000000
 -0.461538  0.307692  0.000000     24.000000
 -0.384615  0.307692  0.000000     24.000000
 -0.307692  0.307692  0.000000     12.000000
  0.384615  0.384615  0.000000      6.000000
  0.461538  0.384615  0.000000     24.000000
 -0.461538  0.384615  0.000000     24.000000
 -0.384615  0.384615  0.000000     12.000000
  0.461538  0.461538  0.000000      6.000000
 -0.461538  0.461538  0.000000     12.000000
  0.230769  0.153846  0.076923     24.000000
  0.307692  0.153846  0.076923     48.000000
  0.384615  0.153846  0.076923     48.000000
  0.461538  0.153846  0.076923     48.000000
 -0.461538  0.153846  0.076923     48.000000
  0.307692  0.230769  0.076923     24.000000
  0.384615  0.230769  0.076923     48.000000
  0.461538  0.230769  0.076923     48.000000
 -0.461538  0.230769  0.076923     48.000000
 -0.384615  0.230769  0.076923     48.000000
 -0.307692  0.230769  0.076923     48.000000
 -0.230769  0.230769  0.076923     48.000000
 -0.153846  0.230769  0.076923     24.000000
  0.384615  0.307692  0.076923     24.000000
  0.461538  0.307692  0.076923     48.000000
 -0.461538  0.307692  0.076923     48.000000
 -0.384615  0.307692  0.076923     48.000000
 -0.307692  0.307692  0.076923     48.000000
 -0.230769  0.307692  0.076923     24.000000
  0.461538  0.384615  0.076923     24.000000
 -0.461538  0.384615  0.076923     48.000000
 -0.384615  0.384615  0.076923     48.000000
 -0.307692  0.384615  0.076923     24.000000
 -0.461538  0.461538  0.076923     24.000000
 -0.384615  0.461538  0.076923     24.000000
  0.461538  0.307692  0.153846     24.000000
 -0.461538  0.307692  0.153846     48.000000
 -0.384615  0.307692  0.153846     48.000000
 -0.461538  0.384615  0.153846     24.000000
 -0.384615  0.384615  0.153846     48.000000
 -0.307692  0.384615  0.153846     48.000000
 -0.230769  0.384615  0.153846     24.000000
 -0.384615  0.461538  0.153846     24.000000
 -0.307692  0.461538  0.153846     24.000000
 -0.307692  0.461538  0.230769     24.000000
 
 Following cartesian coordinates:
            Coordinates               Weight
  0.000000  0.000000  0.000000      1.000000
 -0.017564  0.017564  0.017564      8.000000
 -0.035128  0.035128  0.035128      8.000000
 -0.052692  0.052692  0.052692      8.000000
 -0.070256  0.070256  0.070256      8.000000
 -0.087821  0.087821  0.087821      8.000000
 -0.105385  0.105385  0.105385      8.000000
  0.000000  0.000000  0.035128      6.000000
 -0.017564  0.017564  0.052692     24.000000
 -0.035128  0.035128  0.070256     24.000000
 -0.052692  0.052692  0.087821     24.000000
 -0.070256  0.070256  0.105385     24.000000
 -0.087821  0.087821  0.122949     24.000000
  0.122949 -0.122949 -0.087821     24.000000
  0.105385 -0.105385 -0.070256     24.000000
  0.087821 -0.087821 -0.052692     24.000000
  0.070256 -0.070256 -0.035128     24.000000
  0.052692 -0.052692 -0.017564     24.000000
  0.035128 -0.035128  0.000000     12.000000
  0.000000  0.000000  0.070256      6.000000
 -0.017564  0.017564  0.087821     24.000000
 -0.035128  0.035128  0.105385     24.000000
 -0.052692  0.052692  0.122949     24.000000
 -0.070256  0.070256  0.140513     24.000000
  0.140513 -0.140513 -0.070256     24.000000
  0.122949 -0.122949 -0.052692     24.000000
  0.105385 -0.105385 -0.035128     24.000000
  0.087821 -0.087821 -0.017564     24.000000
  0.070256 -0.070256  0.000000     12.000000
  0.000000  0.000000  0.105385      6.000000
 -0.017564  0.017564  0.122949     24.000000
 -0.035128  0.035128  0.140513     24.000000
 -0.052692  0.052692  0.158077     24.000000
  0.158077 -0.158077 -0.052692     24.000000
  0.140513 -0.140513 -0.035128     24.000000
  0.122949 -0.122949 -0.017564     24.000000
  0.105385 -0.105385  0.000000     12.000000
  0.000000  0.000000  0.140513      6.000000
 -0.017564  0.017564  0.158077     24.000000
 -0.035128  0.035128  0.175641     24.000000
  0.175641 -0.175641 -0.035128     24.000000
  0.158077 -0.158077 -0.017564     24.000000
  0.140513 -0.140513  0.000000     12.000000
  0.000000  0.000000  0.175641      6.000000
 -0.017564  0.017564  0.193205     24.000000
  0.193205 -0.193205 -0.017564     24.000000
  0.175641 -0.175641  0.000000     12.000000
  0.000000  0.000000  0.210769      6.000000
  0.210769 -0.210769  0.000000     12.000000
 -0.000000  0.035128  0.070256     24.000000
 -0.017564  0.052692  0.087821     48.000000
 -0.035128  0.070256  0.105385     48.000000
 -0.052692  0.087821  0.122949     48.000000
  0.158077 -0.122949 -0.087821     48.000000
  0.000000  0.035128  0.105385     24.000000
 -0.017564  0.052692  0.122949     48.000000
 -0.035128  0.070256  0.140513     48.000000
  0.175641 -0.140513 -0.070256     48.000000
  0.158077 -0.122949 -0.052692     48.000000
  0.140513 -0.105385 -0.035128     48.000000
  0.122949 -0.087821 -0.017564     48.000000
  0.105385 -0.070256  0.000000     24.000000
 -0.000000  0.035128  0.140513     24.000000
 -0.017564  0.052692  0.158077     48.000000
  0.193205 -0.158077 -0.052692     48.000000
  0.175641 -0.140513 -0.035128     48.000000
  0.158077 -0.122949 -0.017564     48.000000
  0.140513 -0.105385 -0.000000     24.000000
 -0.000000  0.035128  0.175641     24.000000
  0.210769 -0.175641 -0.035128     48.000000
  0.193205 -0.158077 -0.017564     48.000000
  0.175641 -0.140513  0.000000     24.000000
  0.228333 -0.193205 -0.017564     24.000000
  0.210769 -0.175641  0.000000     24.000000
 -0.000000  0.070256  0.140513     24.000000
  0.210769 -0.140513 -0.070256     48.000000
  0.193205 -0.122949 -0.052692     48.000000
  0.228333 -0.158077 -0.052692     24.000000
  0.210769 -0.140513 -0.035128     48.000000
  0.193205 -0.122949 -0.017564     48.000000
  0.175641 -0.105385 -0.000000     24.000000
  0.228333 -0.158077 -0.017564     24.000000
  0.210769 -0.140513  0.000000     24.000000
  0.228333 -0.122949 -0.017564     24.000000
 


--------------------------------------------------------------------------------------------------------




 Dimension of arrays:
   k-points           NKPTS =     84   k-points in BZ     NKDIM =     84   number of bands    NBANDS=     48
   number of dos      NEDOS =    301   number of ions     NIONS =      2
   non local maximal  LDIM  =      4   non local SUM 2l+1 LMDIM =      8
   total plane-waves  NPLWV =  13824
   max r-space proj   IRMAX =      1   max aug-charges    IRDMAX= 176252
   dimension x,y,z NGX =    24 NGY =   24 NGZ =   24
   dimension x,y,z NGXF=    48 NGYF=   48 NGZF=   48
   support grid    NGXF=    96 NGYF=   96 NGZF=   96
   ions per type =               1   1
 NGX,Y,Z   is equivalent  to a cutoff of  12.88, 12.88, 12.88 a.u.
 NGXF,Y,Z  is equivalent  to a cutoff of  25.77, 25.77, 25.77 a.u.


 I would recommend the setting:
   dimension x,y,z NGX =    23 NGY =   23 NGZ =   23
 SYSTEM =  unknown system                          
 POSCAR =  Si4 C4                                  

 Startparameter for this run:
   NWRITE =      2    write-flag & timer
   PREC   = accura    normal or accurate (medium, high low for compatibility)
   ISTART =      0    job   : 0-new  1-cont  2-samecut
   ICHARG =      2    charge: 1-file 2-atom 10-const
   ISPIN  =      1    spin polarized calculation?
   LNONCOLLINEAR =      F non collinear calculations
   LSORBIT =      F    spin-orbit coupling
   INIWAV =      1    electr: 0-lowe 1-rand  2-diag
   LASPH  =      F    aspherical Exc in radial PAW
   METAGGA=      F    non-selfconsistent MetaGGA calc.

 Electronic Relaxation 1
   ENCUT  =  520.0 eV  38.22 Ry    6.18 a.u.   5.76  5.76  5.76*2*pi/ulx,y,z
   ENINI  =  520.0     initial cutoff
   ENAUG  =  644.9 eV  augmentation charge cutoff
   NELM   =     60;   NELMIN=  2; NELMDL= -5     # of ELM steps 
   EDIFF  = 0.1E-05   stopping-criterion for ELM
   LREAL  =      F    real-space projection
   NLSPLINE    = F    spline interpolate recip. space projectors
   LCOMPAT=      F    compatible to vasp.4.4
   GGA_COMPAT  = T    GGA compatible to vasp.4.4-vasp.4.6
   LMAXPAW     = -100 max onsite density
   LMAXMIX     =    2 max onsite mixed and CHGCAR
   VOSKOWN=      0    Vosko Wilk Nusair interpolation
   ROPT   =    0.00000   0.00000
 Ionic relaxation
   EDIFFG = -.2E-01   stopping-criterion for IOM
   NSW    =      0    number of steps for IOM
   NBLOCK =      1;   KBLOCK =      1    inner block; outer block 
   IBRION =     -1    ionic relax: 0-MD 1-quasi-New 2-CG
   NFREE  =      0    steps in history (QN), initial steepest desc. (CG)
   ISIF   =      2    stress and relaxation
   IWAVPR =     10    prediction:  0-non 1-charg 2-wave 3-comb
   ISYM   =      2    0-nonsym 1-usesym 2-fastsym
   LCORR  =      T    Harris-Foulkes like correction to forces

   POTIM  = 0.5000    time-step for ionic-motion
   TEIN   =    0.0    initial temperature
   TEBEG  =    0.0;   TEEND  =   0.0 temperature during run
   SMASS  =  -3.00    Nose mass-parameter (am)
   estimated Nose-frequenzy (Omega)   =  0.10E-29 period in steps =****** mass=  -0.219E-27a.u.
   SCALEE = 1.0000    scale energy and forces
   NPACO  =    256;   APACO  = 16.0  distance and # of slots for P.C.
   PSTRESS=    0.0 pullay stress

  Mass of Ions in am
   POMASS =  28.09 12.01
  Ionic Valenz
   ZVAL   =   4.00  4.00
  Atomic Wigner-Seitz radii
   RWIGS  =  -1.00 -1.00
  virtual crystal weights 
   VCA    =   1.00  1.00
   NELECT =       8.0000    total number of electrons
   NUPDOWN=      -1.0000    fix difference up-down

 DOS related values:
   EMIN   =  10.00;   EMAX   =-10.00  energy-range for DOS
   EFERMI =   0.00
   ISMEAR =     0;   SIGMA  =   0.10  broadening in eV -4-tet -1-fermi 0-gaus

 Electronic relaxation 2 (details)
   IALGO  =     38    algorithm
   LDIAG  =      T    sub-space diagonalisation (order eigenvalues)
   LSUBROT=      F    optimize rotation matrix (better conditioning)
   TURBO    =      0    0=normal 1=particle mesh
   IRESTART =      0    0=no restart 2=restart with 2 vectors
   NREBOOT  =      0    no. of reboots
   NMIN     =      0    reboot dimension
   EREF     =   0.00    reference energy to select bands
   IMIX   =      4    mixing-type and parameters
     AMIX     =   0.40;   BMIX     =  1.00
     AMIX_MAG =   1.60;   BMIX_MAG =  1.00
     AMIN     =   0.10
     WC   =   100.;   INIMIX=   1;  MIXPRE=   1;  MAXMIX= -45

 Intra band minimization:
   WEIMIN = 0.0000     energy-eigenvalue tresh-hold
   EBREAK =  0.52E-08  absolut break condition
   DEPER  =   0.30     relativ break condition  

   TIME   =   0.40     timestep for ELM

  volume/ion in A,a.u.               =      10.50        70.86
  Fermi-wavevector in a.u.,A,eV,Ry     =   1.186755  2.242641 19.162269  1.408387
  Thomas-Fermi vector in A             =   2.322921
 
 Write flags
   LWAVE  =      T    write WAVECAR
   LCHARG =      T    write CHGCAR
   LVTOT  =      F    write LOCPOT, total local potential
   LVHAR  =      F    write LOCPOT, Hartree potential only
   LELF   =      F    write electronic localiz. function (ELF)
   LORBIT =      0    0 simple, 1 ext, 2 COOP (PROOUT)


 Dipole corrections
   LMONO  =      F    monopole corrections only (constant potential shift)
   LDIPOL =      F    correct potential (dipole corrections)
   IDIPOL =      0    1-x, 2-y, 3-z, 4-all directions 
   EPSILON=  1.0000000 bulk dielectric constant

 Exchange correlation treatment:
   GGA     =    --    GGA type
   LEXCH   =     8    internal setting for exchange type
   VOSKOWN=      0    Vosko Wilk Nusair interpolation
   LHFCALC =     F    Hartree Fock is set to
   LHFONE  =     F    Hartree Fock one center treatment
   AEXX    =    0.0000 exact exchange contribution

 Linear response parameters
   LEPSILON=     F    determine dielectric tensor
   LRPA    =     F    only Hartree local field effects (RPA)
   LNABLA  =     F    use nabla operator in PAW spheres
   LVEL    =     F    velocity operator in full k-point grid
   LINTERFAST=   F  fast interpolation
   KINTER  =     0    interpolate to denser k-point grid
   CSHIFT  =0.1000    complex shift for real part using Kramers Kronig
   OMEGAMAX=  -1.0    maximum frequency
   DEG_THRESHOLD= 0.2000000E-02 threshold for treating states as degnerate
   RTIME   =    0.100 relaxation time in fs

 Orbital magnetization related:
   ORBITALMAG=     F  switch on orbital magnetization
   LCHIMAG   =     F  perturbation theory with respect to B field
   DQ        =  0.001000  dq finite difference perturbation B field



--------------------------------------------------------------------------------------------------------


 Static calculation
 charge density and potential will be updated during run
 non-spin polarized calculation
 Variant of blocked Davidson
 Davidson routine will perform the subspace rotation
 perform sub-space diagonalisation
    after iterative eigenvector-optimisation
 modified Broyden-mixing scheme, WC =      100.0
 initial mixing is a Kerker type mixing with AMIX =  0.4000 and BMIX =      1.0000
 Hartree-type preconditioning will be used
 using additional bands           44
 reciprocal scheme for non local part
 use partial core corrections
 calculate Harris-corrections to forces 
   (improved forces if not selfconsistent)
 use gradient corrections 
 use of overlap-Matrix (Vanderbilt PP)
 Gauss-broadening in eV      SIGMA  =   0.10


--------------------------------------------------------------------------------------------------------


  energy-cutoff  :      520.00
  volume of cell :       21.00
      direct lattice vectors                 reciprocal lattice vectors
     0.000000000  2.189780000  2.189780000    -0.228333440  0.228333440  0.228333440
     2.189780000  0.000000000  2.189780000     0.228333440 -0.228333440  0.228333440
     2.189780000  2.189780000  0.000000000     0.228333440  0.228333440 -0.228333440

  length of vectors
     3.096816575  3.096816575  3.096816575     0.395485119  0.395485119  0.395485119


 
 k-points in units of 2pi/SCALE and weight: Automatic mesh                          
   0.00000000  0.00000000  0.00000000       0.000
  -0.01756411  0.01756411  0.01756411       0.004
  -0.03512822  0.03512822  0.03512822       0.004
  -0.05269233  0.05269233  0.05269233       0.004
  -0.07025644  0.07025644  0.07025644       0.004
  -0.08782055  0.08782055  0.08782055       0.004
  -0.10538466  0.10538466  0.10538466       0.004
   0.00000000  0.00000000  0.03512822       0.003
  -0.01756411  0.01756411  0.05269233       0.011
  -0.03512822  0.03512822  0.07025644       0.011
  -0.05269233  0.05269233  0.08782055       0.011
  -0.07025644  0.07025644  0.10538466       0.011
  -0.08782055  0.08782055  0.12294878       0.011
   0.12294878 -0.12294878 -0.08782055       0.011
   0.10538466 -0.10538466 -0.07025644       0.011
   0.08782055 -0.08782055 -0.05269233       0.011
   0.07025644 -0.07025644 -0.03512822       0.011
   0.05269233 -0.05269233 -0.01756411       0.011
   0.03512822 -0.03512822  0.00000000       0.005
   0.00000000  0.00000000  0.07025644       0.003
  -0.01756411  0.01756411  0.08782055       0.011
  -0.03512822  0.03512822  0.10538466       0.011
  -0.05269233  0.05269233  0.12294878       0.011
  -0.07025644  0.07025644  0.14051289       0.011
   0.14051289 -0.14051289 -0.07025644       0.011
   0.12294878 -0.12294878 -0.05269233       0.011
   0.10538466 -0.10538466 -0.03512822       0.011
   0.08782055 -0.08782055 -0.01756411       0.011
   0.07025644 -0.07025644  0.00000000       0.005
   0.00000000  0.00000000  0.10538466       0.003
  -0.01756411  0.01756411  0.12294878       0.011
  -0.03512822  0.03512822  0.14051289       0.011
  -0.05269233  0.05269233  0.15807700       0.011
   0.15807700 -0.15807700 -0.05269233       0.011
   0.14051289 -0.14051289 -0.03512822       0.011
   0.12294878 -0.12294878 -0.01756411       0.011
   0.10538466 -0.10538466  0.00000000       0.005
   0.00000000  0.00000000  0.14051289       0.003
  -0.01756411  0.01756411  0.15807700       0.011
  -0.03512822  0.03512822  0.17564111       0.011
   0.17564111 -0.17564111 -0.03512822       0.011
   0.15807700 -0.15807700 -0.01756411       0.011
   0.14051289 -0.14051289  0.00000000       0.005
   0.00000000  0.00000000  0.17564111       0.003
  -0.01756411  0.01756411  0.19320522       0.011
   0.19320522 -0.19320522 -0.01756411       0.011
   0.17564111 -0.17564111  0.00000000       0.005
   0.00000000  0.00000000  0.21076933       0.003
   0.21076933 -0.21076933  0.00000000       0.005
  -0.00000000  0.03512822  0.07025644       0.011
  -0.01756411  0.05269233  0.08782055       0.022
  -0.03512822  0.07025644  0.10538466       0.022
  -0.05269233  0.08782055  0.12294878       0.022
   0.15807700 -0.12294878 -0.08782055       0.022
   0.00000000  0.03512822  0.10538466       0.011
  -0.01756411  0.05269233  0.12294878       0.022
  -0.03512822  0.07025644  0.14051289       0.022
   0.17564111 -0.14051289 -0.07025644       0.022
   0.15807700 -0.12294878 -0.05269233       0.022
   0.14051289 -0.10538466 -0.03512822       0.022
   0.12294878 -0.08782055 -0.01756411       0.022
   0.10538466 -0.07025644  0.00000000       0.011
  -0.00000000  0.03512822  0.14051289       0.011
  -0.01756411  0.05269233  0.15807700       0.022
   0.19320522 -0.15807700 -0.05269233       0.022
   0.17564111 -0.14051289 -0.03512822       0.022
   0.15807700 -0.12294878 -0.01756411       0.022
   0.14051289 -0.10538466 -0.00000000       0.011
  -0.00000000  0.03512822  0.17564111       0.011
   0.21076933 -0.17564111 -0.03512822       0.022
   0.19320522 -0.15807700 -0.01756411       0.022
   0.17564111 -0.14051289  0.00000000       0.011
   0.22833344 -0.19320522 -0.01756411       0.011
   0.21076933 -0.17564111  0.00000000       0.011
  -0.00000000  0.07025644  0.14051289       0.011
   0.21076933 -0.14051289 -0.07025644       0.022
   0.19320522 -0.12294878 -0.05269233       0.022
   0.22833344 -0.15807700 -0.05269233       0.011
   0.21076933 -0.14051289 -0.03512822       0.022
   0.19320522 -0.12294878 -0.01756411       0.022
   0.17564111 -0.10538466 -0.00000000       0.011
   0.22833344 -0.15807700 -0.01756411       0.011
   0.21076933 -0.14051289  0.00000000       0.011
   0.22833344 -0.12294878 -0.01756411       0.011
 
 k-points in reciprocal lattice and weights: Automatic mesh                          
   0.00000000  0.00000000  0.00000000       0.000
   0.07692308  0.00000000  0.00000000       0.004
   0.15384615  0.00000000  0.00000000       0.004
   0.23076923  0.00000000  0.00000000       0.004
   0.30769231  0.00000000  0.00000000       0.004
   0.38461538  0.00000000  0.00000000       0.004
   0.46153846  0.00000000  0.00000000       0.004
   0.07692308  0.07692308  0.00000000       0.003
   0.15384615  0.07692308  0.00000000       0.011
   0.23076923  0.07692308  0.00000000       0.011
   0.30769231  0.07692308  0.00000000       0.011
   0.38461538  0.07692308  0.00000000       0.011
   0.46153846  0.07692308  0.00000000       0.011
  -0.46153846  0.07692308  0.00000000       0.011
  -0.38461538  0.07692308  0.00000000       0.011
  -0.30769231  0.07692308  0.00000000       0.011
  -0.23076923  0.07692308  0.00000000       0.011
  -0.15384615  0.07692308  0.00000000       0.011
  -0.07692308  0.07692308  0.00000000       0.005
   0.15384615  0.15384615  0.00000000       0.003
   0.23076923  0.15384615  0.00000000       0.011
   0.30769231  0.15384615  0.00000000       0.011
   0.38461538  0.15384615  0.00000000       0.011
   0.46153846  0.15384615  0.00000000       0.011
  -0.46153846  0.15384615  0.00000000       0.011
  -0.38461538  0.15384615  0.00000000       0.011
  -0.30769231  0.15384615  0.00000000       0.011
  -0.23076923  0.15384615  0.00000000       0.011
  -0.15384615  0.15384615  0.00000000       0.005
   0.23076923  0.23076923  0.00000000       0.003
   0.30769231  0.23076923  0.00000000       0.011
   0.38461538  0.23076923  0.00000000       0.011
   0.46153846  0.23076923  0.00000000       0.011
  -0.46153846  0.23076923  0.00000000       0.011
  -0.38461538  0.23076923  0.00000000       0.011
  -0.30769231  0.23076923  0.00000000       0.011
  -0.23076923  0.23076923  0.00000000       0.005
   0.30769231  0.30769231  0.00000000       0.003
   0.38461538  0.30769231  0.00000000       0.011
   0.46153846  0.30769231  0.00000000       0.011
  -0.46153846  0.30769231  0.00000000       0.011
  -0.38461538  0.30769231  0.00000000       0.011
  -0.30769231  0.30769231  0.00000000       0.005
   0.38461538  0.38461538  0.00000000       0.003
   0.46153846  0.38461538  0.00000000       0.011
  -0.46153846  0.38461538  0.00000000       0.011
  -0.38461538  0.38461538  0.00000000       0.005
   0.46153846  0.46153846  0.00000000       0.003
  -0.46153846  0.46153846  0.00000000       0.005
   0.23076923  0.15384615  0.07692308       0.011
   0.30769231  0.15384615  0.07692308       0.022
   0.38461538  0.15384615  0.07692308       0.022
   0.46153846  0.15384615  0.07692308       0.022
  -0.46153846  0.15384615  0.07692308       0.022
   0.30769231  0.23076923  0.07692308       0.011
   0.38461538  0.23076923  0.07692308       0.022
   0.46153846  0.23076923  0.07692308       0.022
  -0.46153846  0.23076923  0.07692308       0.022
  -0.38461538  0.23076923  0.07692308       0.022
  -0.30769231  0.23076923  0.07692308       0.022
  -0.23076923  0.23076923  0.07692308       0.022
  -0.15384615  0.23076923  0.07692308       0.011
   0.38461538  0.30769231  0.07692308       0.011
   0.46153846  0.30769231  0.07692308       0.022
  -0.46153846  0.30769231  0.07692308       0.022
  -0.38461538  0.30769231  0.07692308       0.022
  -0.30769231  0.30769231  0.07692308       0.022
  -0.23076923  0.30769231  0.07692308       0.011
   0.46153846  0.38461538  0.07692308       0.011
  -0.46153846  0.38461538  0.07692308       0.022
  -0.38461538  0.38461538  0.07692308       0.022
  -0.30769231  0.38461538  0.07692308       0.011
  -0.46153846  0.46153846  0.07692308       0.011
  -0.38461538  0.46153846  0.07692308       0.011
   0.46153846  0.30769231  0.15384615       0.011
  -0.46153846  0.30769231  0.15384615       0.022
  -0.38461538  0.30769231  0.15384615       0.022
  -0.46153846  0.38461538  0.15384615       0.011
  -0.38461538  0.38461538  0.15384615       0.022
  -0.30769231  0.38461538  0.15384615       0.022
  -0.23076923  0.38461538  0.15384615       0.011
  -0.38461538  0.46153846  0.15384615       0.011
  -0.30769231  0.46153846  0.15384615       0.011
  -0.30769231  0.46153846  0.23076923       0.011
 
 position of ions in fractional coordinates (direct lattice) 
   0.25000000  0.25000000  0.25000000
   0.00000000  0.00000000  0.00000000
 
 position of ions in cartesian coordinates  (Angst):
   1.09489000  1.09489000  1.09489000
   0.00000000  0.00000000  0.00000000
 


--------------------------------------------------------------------------------------------------------


 k-point  1 :   0.0000 0.0000 0.0000  plane waves:     537
 k-point  2 :   0.0769 0.0000 0.0000  plane waves:     549
 k-point  3 :   0.1538 0.0000 0.0000  plane waves:     564
 k-point  4 :   0.2308 0.0000 0.0000  plane waves:     564
 k-point  5 :   0.3077 0.0000 0.0000  plane waves:     568
 k-point  6 :   0.3846 0.0000 0.0000  plane waves:     571
 k-point  7 :   0.4615 0.0000 0.0000  plane waves:     571
 k-point  8 :   0.0769 0.0769 0.0000  plane waves:     556
 k-point  9 :   0.1538 0.0769 0.0000  plane waves:     559
 k-point 10 :   0.2308 0.0769 0.0000  plane waves:     564
 k-point 11 :   0.3077 0.0769 0.0000  plane waves:     568
 k-point 12 :   0.3846 0.0769 0.0000  plane waves:     571
 k-point 13 :   0.4615 0.0769 0.0000  plane waves:     570
 k-point 14 :  -0.4615 0.0769 0.0000  plane waves:     572
 k-point 15 :  -0.3846 0.0769 0.0000  plane waves:     572
 k-point 16 :  -0.3077 0.0769 0.0000  plane waves:     571
 k-point 17 :  -0.2308 0.0769 0.0000  plane waves:     567
 k-point 18 :  -0.1538 0.0769 0.0000  plane waves:     563
 k-point 19 :  -0.0769 0.0769 0.0000  plane waves:     559
 k-point 20 :   0.1538 0.1538 0.0000  plane waves:     564
 k-point 21 :   0.2308 0.1538 0.0000  plane waves:     565
 k-point 22 :   0.3077 0.1538 0.0000  plane waves:     562
 k-point 23 :   0.3846 0.1538 0.0000  plane waves:     572
 k-point 24 :   0.4615 0.1538 0.0000  plane waves:     565
 k-point 25 :  -0.4615 0.1538 0.0000  plane waves:     565
 k-point 26 :  -0.3846 0.1538 0.0000  plane waves:     567
 k-point 27 :  -0.3077 0.1538 0.0000  plane waves:     571
 k-point 28 :  -0.2308 0.1538 0.0000  plane waves:     568
 k-point 29 :  -0.1538 0.1538 0.0000  plane waves:     564
 k-point 30 :   0.2308 0.2308 0.0000  plane waves:     568
 k-point 31 :   0.3077 0.2308 0.0000  plane waves:     566
 k-point 32 :   0.3846 0.2308 0.0000  plane waves:     563
 k-point 33 :   0.4615 0.2308 0.0000  plane waves:     564
 k-point 34 :  -0.4615 0.2308 0.0000  plane waves:     567
 k-point 35 :  -0.3846 0.2308 0.0000  plane waves:     568
 k-point 36 :  -0.3077 0.2308 0.0000  plane waves:     562
 k-point 37 :  -0.2308 0.2308 0.0000  plane waves:     558
 k-point 38 :   0.3077 0.3077 0.0000  plane waves:     568
 k-point 39 :   0.3846 0.3077 0.0000  plane waves:     566
 k-point 40 :   0.4615 0.3077 0.0000  plane waves:     568
 k-point 41 :  -0.4615 0.3077 0.0000  plane waves:     566
 k-point 42 :  -0.3846 0.3077 0.0000  plane waves:     563
 k-point 43 :  -0.3077 0.3077 0.0000  plane waves:     568
 k-point 44 :   0.3846 0.3846 0.0000  plane waves:     568
 k-point 45 :   0.4615 0.3846 0.0000  plane waves:     566
 k-point 46 :  -0.4615 0.3846 0.0000  plane waves:     566
 k-point 47 :  -0.3846 0.3846 0.0000  plane waves:     560
 k-point 48 :   0.4615 0.4615 0.0000  plane waves:     572
 k-point 49 :  -0.4615 0.4615 0.0000  plane waves:     576
 k-point 50 :   0.2308 0.1538 0.0769  plane waves:     560
 k-point 51 :   0.3077 0.1538 0.0769  plane waves:     567
 k-point 52 :   0.3846 0.1538 0.0769  plane waves:     567
 k-point 53 :   0.4615 0.1538 0.0769  plane waves:     565
 k-point 54 :  -0.4615 0.1538 0.0769  plane waves:     569
 k-point 55 :   0.3077 0.2308 0.0769  plane waves:     565
 k-point 56 :   0.3846 0.2308 0.0769  plane waves:     564
 k-point 57 :   0.4615 0.2308 0.0769  plane waves:     567
 k-point 58 :  -0.4615 0.2308 0.0769  plane waves:     563
 k-point 59 :  -0.3846 0.2308 0.0769  plane waves:     564
 k-point 60 :  -0.3077 0.2308 0.0769  plane waves:     561
 k-point 61 :  -0.2308 0.2308 0.0769  plane waves:     567
 k-point 62 :  -0.1538 0.2308 0.0769  plane waves:     562
 k-point 63 :   0.3846 0.3077 0.0769  plane waves:     565
 k-point 64 :   0.4615 0.3077 0.0769  plane waves:     565
 k-point 65 :  -0.4615 0.3077 0.0769  plane waves:     563
 k-point 66 :  -0.3846 0.3077 0.0769  plane waves:     563
 k-point 67 :  -0.3077 0.3077 0.0769  plane waves:     562
 k-point 68 :  -0.2308 0.3077 0.0769  plane waves:     562
 k-point 69 :   0.4615 0.3846 0.0769  plane waves:     566
 k-point 70 :  -0.4615 0.3846 0.0769  plane waves:     567
 k-point 71 :  -0.3846 0.3846 0.0769  plane waves:     564
 k-point 72 :  -0.3077 0.3846 0.0769  plane waves:     562
 k-point 73 :  -0.4615 0.4615 0.0769  plane waves:     565
 k-point 74 :  -0.3846 0.4615 0.0769  plane waves:     566
 k-point 75 :   0.4615 0.3077 0.1538  plane waves:     570
 k-point 76 :  -0.4615 0.3077 0.1538  plane waves:     563
 k-point 77 :  -0.3846 0.3077 0.1538  plane waves:     562
 k-point 78 :  -0.4615 0.3846 0.1538  plane waves:     568
 k-point 79 :  -0.3846 0.3846 0.1538  plane waves:     565
 k-point 80 :  -0.3077 0.3846 0.1538  plane waves:     566
 k-point 81 :  -0.2308 0.3846 0.1538  plane waves:     565
 k-point 82 :  -0.3846 0.4615 0.1538  plane waves:     570
 k-point 83 :  -0.3077 0.4615 0.1538  plane waves:     562
 k-point 84 :  -0.3077 0.4615 0.2308  plane waves:     565

 maximum and minimum number of plane-waves per node :       576      537

 maximum number of plane-waves:       576
 maximum index in each direction: 
   IXMAX=    6   IYMAX=    5   IZMAX=    5
   IXMIN=   -6   IYMIN=   -6   IZMIN=   -5

 WARNING: aliasing errors must be expected set NGX to  26 to avoid them
 NGY is ok and might be reduce to  24
 NGZ is ok and might be reduce to  22
 aliasing errors are usually negligible using standard VASP settings
 and one can safely disregard these warnings

 serial   3D FFT for wavefunctions
 parallel 3D FFT for charge:
    minimum data exchange during FFTs selected (reduces bandwidth)


 total amount of memory used by VASP on root node    38164. kBytes
========================================================================

   base      :      30000. kBytes
   nonl-proj :       6211. kBytes
   fftplans  :        414. kBytes
   grid      :        695. kBytes
   one-center:          6. kBytes
   wavefun   :        838. kBytes
 
     INWAV:  cpu time    0.00: real time    0.00
 Broyden mixing: mesh for mixing (old mesh)
   NGX = 11   NGY = 11   NGZ = 11
  (NGX  = 48   NGY  = 48   NGZ  = 48)
  gives a total of   1331 points

 initial charge density was supplied:
 charge density of overlapping atoms calculated
 number of electron       8.0000000 magnetization 
 keeping initial charge density in first step


--------------------------------------------------------------------------------------------------------


 Maximum index for augmentation-charges         4058 (set IRDMAX)


--------------------------------------------------------------------------------------------------------


 First call to EWALD:  gamma=   0.642
 Maximum number of real-space cells 3x 3x 3
 Maximum number of reciprocal cells 3x 3x 3

 FEWALD executed in parallel
    FEWALD:  cpu time    0.00: real time    0.00


----------------------------------------- Iteration    1(   1)  ---------------------------------------


    POTLOK:  cpu time    0.25: real time    0.25
    SETDIJ:  cpu time    0.02: real time    0.02
     EDDAV:  cpu time    6.81: real time    6.89
       DOS:  cpu time    0.00: real time    0.00
    --------------------------------------------
      LOOP:  cpu time    7.08: real time    7.15

 eigenvalue-minimisations  :  9600
 total energy-change (2. order) :-0.1541283E+02  (-0.4444229E+03)
 number of electron       8.0000000 magnetization 
 augmentation part        8.0000000 magnetization 

 Free energy of the ion-electron system (eV)
  ---------------------------------------------------
  alpha Z        PSCENC =        11.02920051
  Ewald energy   TEWEN  =      -283.38461863
  -Hartree energ DENC   =       -21.04212228
  -exchange      EXHF   =         0.00000000
  -V(xc)+E(xc)   XCENC  =         4.52936772
  PAW double counting   =       196.64584599     -179.62196998
  entropy T*S    EENTRO =        -0.00000000
  eigenvalues    EBANDS =         6.21622605
  atomic energy  EATOM  =       250.21524468
  ---------------------------------------------------
  free energy    TOTEN  =       -15.41282593 eV

  energy without entropy =      -15.41282593  energy(sigma->0) =      -15.41282593


--------------------------------------------------------------------------------------------------------




----------------------------------------- Iteration    1(   2)  ---------------------------------------


     EDDAV:  cpu time   11.27: real time   11.29
       DOS:  cpu time    0.00: real time    0.00
    --------------------------------------------
      LOOP:  cpu time   11.27: real time   11.29

 eigenvalue-minimisations  : 11856
 total energy-change (2. order) :-0.1461869E+01  (-0.1461869E+01)
 number of electron       8.0000000 magnetization 
 augmentation part        8.0000000 magnetization 

 Free energy of the ion-electron system (eV)
  ---------------------------------------------------
  alpha Z        PSCENC =        11.02920051
  Ewald energy   TEWEN  =      -283.38461863
  -Hartree energ DENC   =       -21.04212228
  -exchange      EXHF   =         0.00000000
  -V(xc)+E(xc)   XCENC  =         4.52936772
  PAW double counting   =       196.64584599     -179.62196998
  entropy T*S    EENTRO =        -0.00000000
  eigenvalues    EBANDS =         4.75435693
  atomic energy  EATOM  =       250.21524468
  ---------------------------------------------------
  free energy    TOTEN  =       -16.87469504 eV

  energy without entropy =      -16.87469504  energy(sigma->0) =      -16.87469504


--------------------------------------------------------------------------------------------------------




----------------------------------------- Iteration    1(   3)  ---------------------------------------


     EDDAV:  cpu time    8.68: real time    8.69
       DOS:  cpu time    0.00: real time    0.00
    --------------------------------------------
      LOOP:  cpu time    8.68: real time    8.69

 eigenvalue-minimisations  :  8832
 total energy-change (2. order) :-0.2633694E-03  (-0.2633693E-03)
 number of electron       8.0000000 magnetization 
 augmentation part        8.0000000 magnetization 

 Free energy of the ion-electron system (eV)
  ---------------------------------------------------
  alpha Z        PSCENC =        11.02920051
  Ewald energy   TEWEN  =      -283.38461863
  -Hartree energ DENC   =       -21.04212228
  -exchange      EXHF   =         0.00000000
  -V(xc)+E(xc)   XCENC  =         4.52936772
  PAW double counting   =       196.64584599     -179.62196998
  entropy T*S    EENTRO =        -0.00000000
  eigenvalues    EBANDS =         4.75409356
  atomic energy  EATOM  =       250.21524468
  ---------------------------------------------------
  free energy    TOTEN  =       -16.87495841 eV

  energy without entropy =      -16.87495841  energy(sigma->0) =      -16.87495841


--------------------------------------------------------------------------------------------------------




----------------------------------------- Iteration    1(   4)  ---------------------------------------


     EDDAV:  cpu time   22.24: real time   22.26
       DOS:  cpu time    0.00: real time    0.00
    --------------------------------------------
      LOOP:  cpu time   22.24: real time   22.26

 eigenvalue-minimisations  : 15072
 total energy-change (2. order) :-0.1997421E-07  (-0.1988726E-07)
 number of electron       8.0000000 magnetization 
 augmentation part        8.0000000 magnetization 

 Free energy of the ion-electron system (eV)
  ---------------------------------------------------
  alpha Z        PSCENC =        11.02920051
  Ewald energy   TEWEN  =      -283.38461863
  -Hartree energ DENC   =       -21.04212228
  -exchange      EXHF   =         0.00000000
  -V(xc)+E(xc)   XCENC  =         4.52936772
  PAW double counting   =       196.64584599     -179.62196998
  entropy T*S    EENTRO =        -0.00000000
  eigenvalues    EBANDS =         4.75409354
  atomic energy  EATOM  =       250.21524468
  ---------------------------------------------------
  free energy    TOTEN  =       -16.87495843 eV

  energy without entropy =      -16.87495843  energy(sigma->0) =      -16.87495843


--------------------------------------------------------------------------------------------------------




----------------------------------------- Iteration    1(   5)  ---------------------------------------


     EDDAV:  cpu time    9.40: real time    9.41
       DOS:  cpu time    0.00: real time    0.00
    CHARGE:  cpu time    0.04: real time    0.05
    MIXING:  cpu time    0.00: real time    0.00
    --------------------------------------------
      LOOP:  cpu time    9.44: real time    9.46

 eigenvalue-minimisations  :  8832
 total energy-change (2. order) :-0.7730705E-11  (-0.2615768E-12)
 number of electron       8.0000000 magnetization 
 augmentation part       -0.0490125 magnetization 

 Broyden mixing:
  rms(total) = 0.86589E+00    rms(broyden)= 0.86581E+00
  rms(prec ) = 0.28864E+01
  weight for this iteration     100.00

 Free energy of the ion-electron system (eV)
  ---------------------------------------------------
  alpha Z        PSCENC =        11.02920051
  Ewald energy   TEWEN  =      -283.38461863
  -Hartree energ DENC   =       -21.04212228
  -exchange      EXHF   =         0.00000000
  -V(xc)+E(xc)   XCENC  =         4.52936772
  PAW double counting   =       196.64584599     -179.62196998
  entropy T*S    EENTRO =        -0.00000000
  eigenvalues    EBANDS =         4.75409354
  atomic energy  EATOM  =       250.21524468
  ---------------------------------------------------
  free energy    TOTEN  =       -16.87495843 eV

  energy without entropy =      -16.87495843  energy(sigma->0) =      -16.87495843


--------------------------------------------------------------------------------------------------------




----------------------------------------- Iteration    1(   6)  ---------------------------------------


    POTLOK:  cpu time    0.01: real time    0.01
    SETDIJ:  cpu time    0.02: real time    0.02
     EDDAV:  cpu time    8.35: real time    8.39
       DOS:  cpu time    0.00: real time    0.00
    CHARGE:  cpu time    0.04: real time    0.04
    MIXING:  cpu time    0.00: real time    0.00
    --------------------------------------------
      LOOP:  cpu time    8.42: real time    8.46

 eigenvalue-minimisations  :  8304
 total energy-change (2. order) : 0.1747597E+01  (-0.7679024E+00)
 number of electron       8.0000000 magnetization 
 augmentation part       -0.1158919 magnetization 

 Broyden mixing:
  rms(total) = 0.34691E+00    rms(broyden)= 0.34686E+00
  rms(prec ) = 0.74753E+00
  weight for this iteration     100.00

 eigenvalues of (default mixing * dielectric matrix)
  average eigenvalue GAMMA=   1.2446
  1.2446

 Free energy of the ion-electron system (eV)
  ---------------------------------------------------
  alpha Z        PSCENC =        11.02920051
  Ewald energy   TEWEN  =      -283.38461863
  -Hartree energ DENC   =       -28.92314309
  -exchange      EXHF   =         0.00000000
  -V(xc)+E(xc)   XCENC  =         5.20340751
  PAW double counting   =       463.44302605     -446.52348207
  entropy T*S    EENTRO =        -0.00000000
  eigenvalues    EBANDS =        13.81300319
  atomic energy  EATOM  =       250.21524468
  ---------------------------------------------------
  free energy    TOTEN  =       -15.12736184 eV

  energy without entropy =      -15.12736184  energy(sigma->0) =      -15.12736184


--------------------------------------------------------------------------------------------------------




----------------------------------------- Iteration    1(   7)  ---------------------------------------


    POTLOK:  cpu time    0.08: real time    0.08
    SETDIJ:  cpu time    0.02: real time    0.02
     EDDAV:  cpu time   17.58: real time   17.60
       DOS:  cpu time    0.00: real time    0.00
    CHARGE:  cpu time    0.03: real time    0.03
    MIXING:  cpu time    0.00: real time    0.00
    --------------------------------------------
      LOOP:  cpu time   17.71: real time   17.73

 eigenvalue-minimisations  : 13872
 total energy-change (2. order) : 0.5967907E-01  (-0.1882154E-01)
 number of electron       8.0000000 magnetization 
 augmentation part       -0.1241020 magnetization 

 Broyden mixing:
  rms(total) = 0.18211E+00    rms(broyden)= 0.18210E+00
  rms(prec ) = 0.34623E+00
  weight for this iteration     100.00

 eigenvalues of (default mixing * dielectric matrix)
  average eigenvalue GAMMA=   1.8076
  1.1356  2.4795

 Free energy of the ion-electron system (eV)
  ---------------------------------------------------
  alpha Z        PSCENC =        11.02920051
  Ewald energy   TEWEN  =      -283.38461863
  -Hartree energ DENC   =       -30.94472164
  -exchange      EXHF   =         0.00000000
  -V(xc)+E(xc)   XCENC  =         5.41308765
  PAW double counting   =       706.25302393     -689.37645140
  entropy T*S    EENTRO =        -0.00000000
  eigenvalues    EBANDS =        15.72755211
  atomic energy  EATOM  =       250.21524468
  ---------------------------------------------------
  free energy    TOTEN  =       -15.06768277 eV

  energy without entropy =      -15.06768277  energy(sigma->0) =      -15.06768277


--------------------------------------------------------------------------------------------------------




----------------------------------------- Iteration    1(   8)  ---------------------------------------


    POTLOK:  cpu time    0.01: real time    0.01
    SETDIJ:  cpu time    0.02: real time    0.02
     EDDAV:  cpu time   18.14: real time   18.33
       DOS:  cpu time    0.00: real time    0.00
    CHARGE:  cpu time    0.04: real time    0.04
    MIXING:  cpu time    0.00: real time    0.00
    --------------------------------------------
      LOOP:  cpu time   18.21: real time   18.39

 eigenvalue-minimisations  : 13248
 total energy-change (2. order) : 0.6981059E-02  (-0.1911397E-02)
 number of electron       8.0000000 magnetization 
 augmentation part       -0.1223942 magnetization 

 Broyden mixing:
  rms(total) = 0.14645E-01    rms(broyden)= 0.14644E-01
  rms(prec ) = 0.24276E-01
  weight for this iteration     100.00

 eigenvalues of (default mixing * dielectric matrix)
  average eigenvalue GAMMA=   1.3083
  2.4746  1.1350  0.3154

 Free energy of the ion-electron system (eV)
  ---------------------------------------------------
  alpha Z        PSCENC =        11.02920051
  Ewald energy   TEWEN  =      -283.38461863
  -Hartree energ DENC   =       -32.02309869
  -exchange      EXHF   =         0.00000000
  -V(xc)+E(xc)   XCENC  =         5.56490921
  PAW double counting   =      1018.36174504    -1001.52640915
  entropy T*S    EENTRO =        -0.00000000
  eigenvalues    EBANDS =        16.70232532
  atomic energy  EATOM  =       250.21524468
  ---------------------------------------------------
  free energy    TOTEN  =       -15.06070171 eV

  energy without entropy =      -15.06070171  energy(sigma->0) =      -15.06070171


--------------------------------------------------------------------------------------------------------




----------------------------------------- Iteration    1(   9)  ---------------------------------------


    POTLOK:  cpu time    0.01: real time    0.01
    SETDIJ:  cpu time    0.02: real time    0.02
     EDDAV:  cpu time   13.28: real time   13.30
       DOS:  cpu time    0.00: real time    0.00
    CHARGE:  cpu time    0.03: real time    0.03
    MIXING:  cpu time    0.00: real time    0.00
    --------------------------------------------
      LOOP:  cpu time   13.35: real time   13.36

 eigenvalue-minimisations  : 11472
 total energy-change (2. order) :-0.1616358E-03  (-0.7220880E-05)
 number of electron       8.0000000 magnetization 
 augmentation part       -0.1223756 magnetization 

 Broyden mixing:
  rms(total) = 0.97119E-02    rms(broyden)= 0.97119E-02
  rms(prec ) = 0.14948E-01
  weight for this iteration     100.00

 eigenvalues of (default mixing * dielectric matrix)
  average eigenvalue GAMMA=   1.7769
  1.0086  1.1394  2.4798  2.4798

 Free energy of the ion-electron system (eV)
  ---------------------------------------------------
  alpha Z        PSCENC =        11.02920051
  Ewald energy   TEWEN  =      -283.38461863
  -Hartree energ DENC   =       -32.02516057
  -exchange      EXHF   =         0.00000000
  -V(xc)+E(xc)   XCENC  =         5.56678669
  PAW double counting   =      1020.94792366    -1004.11051347
  entropy T*S    EENTRO =        -0.00000000
  eigenvalues    EBANDS =        16.70027377
  atomic energy  EATOM  =       250.21524468
  ---------------------------------------------------
  free energy    TOTEN  =       -15.06086335 eV

  energy without entropy =      -15.06086335  energy(sigma->0) =      -15.06086335


--------------------------------------------------------------------------------------------------------




----------------------------------------- Iteration    1(  10)  ---------------------------------------


    POTLOK:  cpu time    0.05: real time    0.05
    SETDIJ:  cpu time    0.01: real time    0.02
     EDDAV:  cpu time   16.93: real time   16.95
       DOS:  cpu time    0.00: real time    0.00
    CHARGE:  cpu time    0.03: real time    0.04
    MIXING:  cpu time    0.00: real time    0.00
    --------------------------------------------
      LOOP:  cpu time   17.04: real time   17.06

 eigenvalue-minimisations  : 12960
 total energy-change (2. order) :-0.1058274E-03  (-0.1543983E-04)
 number of electron       8.0000000 magnetization 
 augmentation part       -0.1224877 magnetization 

 Broyden mixing:
  rms(total) = 0.16396E-02    rms(broyden)= 0.16396E-02
  rms(prec ) = 0.22973E-02
  weight for this iteration     100.00

 eigenvalues of (default mixing * dielectric matrix)
  average eigenvalue GAMMA=   1.8742
  0.9973  1.1449  2.6747  2.5046  2.0492

 Free energy of the ion-electron system (eV)
  ---------------------------------------------------
  alpha Z        PSCENC =        11.02920051
  Ewald energy   TEWEN  =      -283.38461863
  -Hartree energ DENC   =       -32.02442149
  -exchange      EXHF   =         0.00000000
  -V(xc)+E(xc)   XCENC  =         5.56804599
  PAW double counting   =      1016.29535436     -999.45422833
  entropy T*S    EENTRO =        -0.00000000
  eigenvalues    EBANDS =        16.69445373
  atomic energy  EATOM  =       250.21524468
  ---------------------------------------------------
  free energy    TOTEN  =       -15.06096918 eV

  energy without entropy =      -15.06096918  energy(sigma->0) =      -15.06096918


--------------------------------------------------------------------------------------------------------




----------------------------------------- Iteration    1(  11)  ---------------------------------------


    POTLOK:  cpu time    0.02: real time    0.02
    SETDIJ:  cpu time    0.02: real time    0.02
     EDDAV:  cpu time   15.37: real time   15.38
       DOS:  cpu time    0.00: real time    0.00
    CHARGE:  cpu time    0.04: real time    0.04
    MIXING:  cpu time    0.00: real time    0.00
    --------------------------------------------
      LOOP:  cpu time   15.44: real time   15.46

 eigenvalue-minimisations  : 12528
 total energy-change (2. order) :-0.2807600E-05  (-0.3106723E-06)
 number of electron       8.0000000 magnetization 
 augmentation part       -0.1224736 magnetization 

 Broyden mixing:
  rms(total) = 0.98682E-04    rms(broyden)= 0.98644E-04
  rms(prec ) = 0.23220E-03
  weight for this iteration     100.00

 eigenvalues of (default mixing * dielectric matrix)
  average eigenvalue GAMMA=   1.8089
  2.8433  2.4270  2.0809  0.9925  1.1422  1.3675

 Free energy of the ion-electron system (eV)
  ---------------------------------------------------
  alpha Z        PSCENC =        11.02920051
  Ewald energy   TEWEN  =      -283.38461863
  -Hartree energ DENC   =       -32.03054492
  -exchange      EXHF   =         0.00000000
  -V(xc)+E(xc)   XCENC  =         5.56859336
  PAW double counting   =      1013.40875092     -996.56808104
  entropy T*S    EENTRO =        -0.00000000
  eigenvalues    EBANDS =        16.70048313
  atomic energy  EATOM  =       250.21524468
  ---------------------------------------------------
  free energy    TOTEN  =       -15.06097198 eV

  energy without entropy =      -15.06097198  energy(sigma->0) =      -15.06097198


--------------------------------------------------------------------------------------------------------




----------------------------------------- Iteration    1(  12)  ---------------------------------------


    POTLOK:  cpu time    0.01: real time    0.01
    SETDIJ:  cpu time    0.02: real time    0.02
     EDDAV:  cpu time    8.84: real time    8.85
       DOS:  cpu time    0.00: real time    0.00
    --------------------------------------------
      LOOP:  cpu time    8.87: real time    8.88

 eigenvalue-minimisations  :  8112
 total energy-change (2. order) :-0.5905883E-07  (-0.5549523E-08)
 number of electron       8.0000000 magnetization 
 augmentation part       -0.1224736 magnetization 

 Free energy of the ion-electron system (eV)
  ---------------------------------------------------
  alpha Z        PSCENC =        11.02920051
  Ewald energy   TEWEN  =      -283.38461863
  -Hartree energ DENC   =       -32.03074351
  -exchange      EXHF   =         0.00000000
  -V(xc)+E(xc)   XCENC  =         5.56862195
  PAW double counting   =      1013.43410275     -996.59343403
  entropy T*S    EENTRO =        -0.00000000
  eigenvalues    EBANDS =        16.70065424
  atomic energy  EATOM  =       250.21524468
  ---------------------------------------------------
  free energy    TOTEN  =       -15.06097204 eV

  energy without entropy =      -15.06097204  energy(sigma->0) =      -15.06097204


--------------------------------------------------------------------------------------------------------




 average (electrostatic) potential at core
  the test charge radii are     0.9892  0.6991
  (the norm of the test charge is              1.0000)
       1 -80.5770       2 -44.9930
 
 
 
 E-fermi :   8.3313     XC(G=0): -11.2917     alpha+bet :-16.1933


 k-point     1 :       0.0000    0.0000    0.0000
  band No.  band energies     occupation 
      1      -7.3459      2.00000
      2       7.9415      2.00000
      3       7.9415      2.00000
      4       7.9415      2.00000
      5      14.0021      0.00000
      6      15.1469      0.00000
      7      15.1469      0.00000
      8      15.1469      0.00000
      9      22.3620      0.00000
     10      22.3620      0.00000
     11      24.1936      0.00000
     12      25.0967      0.00000
     13      25.0967      0.00000
     14      25.0967      0.00000
     15      31.2391      0.00000
     16      41.3336      0.00000
     17      41.3336      0.00000
     18      41.3336      0.00000
     19      49.3953      0.00000
     20      49.3953      0.00000
     21      49.3953      0.00000
     22      50.8417      0.00000
     23      50.8417      0.00000
     24      54.8427      0.00000
     25      54.8427      0.00000
     26      54.8427      0.00000
     27      66.6709      0.00000
     28      67.5370      0.00000
     29      67.5370      0.00000
     30      67.5370      0.00000
     31      70.4707      0.00000
     32      70.4707      0.00000
     33      70.4707      0.00000
     34      70.8050      0.00000
     35      70.8050      0.00000
     36      76.6547      0.00000
     37      76.9142      0.00000
     38      76.9142      0.00000
     39      77.7673      0.00000
     40      77.7673      0.00000
     41      77.7673      0.00000
     42      79.2304      0.00000
     43      79.2304      0.00000
     44      79.2304      0.00000
     45      79.8546      0.00000
     46      79.8546      0.00000
     47      79.8546      0.00000
     48      80.3515      0.00000

 k-point     2 :       0.0769    0.0000    0.0000
  band No.  band energies     occupation 
      1      -7.2316      2.00000
      2       7.3146      2.00000
      3       7.8603      2.00000
      4       7.8603      2.00000
      5      14.2375      0.00000
      6      15.2545      0.00000
      7      15.2973      0.00000
      8      15.2973      0.00000
      9      21.7067      0.00000
     10      21.7067      0.00000
     11      24.2312      0.00000
     12      25.1734      0.00000
     13      26.1127      0.00000
     14      26.1127      0.00000
     15      31.9400      0.00000
     16      40.7935      0.00000
     17      41.0652      0.00000
     18      41.0652      0.00000
     19      48.1157      0.00000
     20      48.1157      0.00000
     21      49.7826      0.00000
     22      50.4473      0.00000
     23      50.4473      0.00000
     24      54.9574      0.00000
     25      57.0357      0.00000
     26      57.0357      0.00000
     27      64.8147      0.00000
     28      66.9101      0.00000
     29      66.9101      0.00000
     30      67.8817      0.00000
     31      69.1793      0.00000
     32      69.1793      0.00000
     33      70.4703      0.00000
     34      70.4703      0.00000
     35      70.8985      0.00000
     36      74.7570      0.00000
     37      74.7570      0.00000
     38      76.3633      0.00000
     39      76.6500      0.00000
     40      77.5586      0.00000
     41      78.0214      0.00000
     42      78.0214      0.00000
     43      78.8660      0.00000
     44      78.8660      0.00000
     45      80.5055      0.00000
     46      81.0749      0.00000
     47      81.0749      0.00000
     48      83.0200      0.00000

 k-point     3 :       0.1538    0.0000    0.0000
  band No.  band energies     occupation 
      1      -6.8913      2.00000
      2       5.8613      2.00000
      3       7.6539      2.00000
      4       7.6539      2.00000
      5      14.1962      0.00000
      6      15.6161      0.00000
      7      15.6161      0.00000
      8      15.9925      0.00000
      9      20.9208      0.00000
     10      20.9208      0.00000
     11      23.6082      0.00000
     12      26.3960      0.00000
     13      28.0280      0.00000
     14      28.0280      0.00000
     15      33.5823      0.00000
     16      39.6422      0.00000
     17      40.0876      0.00000
     18      40.0876      0.00000
     19      46.0623      0.00000
     20      46.0623      0.00000
     21      50.3867      0.00000
     22      50.5726      0.00000
     23      50.5726      0.00000
     24      55.2960      0.00000
     25      60.4132      0.00000
     26      60.4132      0.00000
     27      62.3014      0.00000
     28      64.5399      0.00000
     29      64.5399      0.00000
     30      67.5159      0.00000
     31      67.5159      0.00000
     32      67.5316      0.00000
     33      68.8917      0.00000
     34      68.8917      0.00000
     35      70.8117      0.00000
     36      73.3155      0.00000
     37      73.3594      0.00000
     38      73.3594      0.00000
     39      75.2770      0.00000
     40      77.0147      0.00000
     41      77.9288      0.00000
     42      77.9288      0.00000
     43      79.7354      0.00000
     44      80.2403      0.00000
     45      80.2403      0.00000
     46      83.3186      0.00000
     47      83.3186      0.00000
     48      84.3105      0.00000

 k-point     4 :       0.2308    0.0000    0.0000
  band No.  band energies     occupation 
      1      -6.3353      2.00000
      2       4.1204      2.00000
      3       7.4001      2.00000
      4       7.4001      2.00000
      5      13.8817      0.00000
      6      15.7734      0.00000
      7      15.7734      0.00000
      8      16.9570      0.00000
      9      20.8508      0.00000
     10      20.8508      0.00000
     11      23.0300      0.00000
     12      28.2407      0.00000
     13      30.0159      0.00000
     14      30.0159      0.00000
     15      35.2012      0.00000
     16      38.4363      0.00000
     17      38.4363      0.00000
     18      38.9957      0.00000
     19      44.9312      0.00000
     20      44.9312      0.00000
     21      50.1276      0.00000
     22      50.9027      0.00000
     23      50.9027      0.00000
     24      55.8370      0.00000
     25      60.3127      0.00000
     26      60.3127      0.00000
     27      60.7047      0.00000
     28      62.7436      0.00000
     29      62.7436      0.00000
     30      65.8276      0.00000
     31      66.4110      0.00000
     32      66.4110      0.00000
     33      68.7846      0.00000
     34      68.7846      0.00000
     35      69.3043      0.00000
     36      70.5932      0.00000
     37      73.1807      0.00000
     38      73.1807      0.00000
     39      74.0482      0.00000
     40      76.5346      0.00000
     41      77.3703      0.00000
     42      77.3703      0.00000
     43      79.5393      0.00000
     44      82.2867      0.00000
     45      82.2867      0.00000
     46      84.7821      0.00000
     47      84.7821      0.00000
     48      86.5895      0.00000

 k-point     5 :       0.3077    0.0000    0.0000
  band No.  band energies     occupation 
      1      -5.5887      2.00000
      2       2.3688      2.00000
      3       7.1664      2.00000
      4       7.1664      2.00000
      5      13.5791      0.00000
      6      15.6057      0.00000
      7      15.6057      0.00000
      8      17.6262      0.00000
      9      21.6819      0.00000
     10      21.6819      0.00000
     11      22.9493      0.00000
     12      29.9521      0.00000
     13      31.1008      0.00000
     14      31.1008      0.00000
     15      35.6636      0.00000
     16      37.4086      0.00000
     17      37.4086      0.00000
     18      40.4114      0.00000
     19      44.4802      0.00000
     20      44.4802      0.00000
     21      48.5377      0.00000
     22      51.2542      0.00000
     23      51.2542      0.00000
     24      56.4247      0.00000
     25      56.4247      0.00000
     26      56.5301      0.00000
     27      59.9293      0.00000
     28      62.5815      0.00000
     29      62.5815      0.00000
     30      62.6454      0.00000
     31      64.6215      0.00000
     32      64.6215      0.00000
     33      68.2602      0.00000
     34      68.5111      0.00000
     35      71.4109      0.00000
     36      71.4109      0.00000
     37      73.4082      0.00000
     38      73.9611      0.00000
     39      73.9611      0.00000
     40      76.2230      0.00000
     41      76.8985      0.00000
     42      76.8985      0.00000
     43      80.0493      0.00000
     44      84.1563      0.00000
     45      84.1563      0.00000
     46      86.8827      0.00000
     47      86.8827      0.00000
     48      86.9790      0.00000

 k-point     6 :       0.3846    0.0000    0.0000
  band No.  band energies     occupation 
      1      -4.7197      2.00000
      2       0.7871      2.00000
      3       6.9944      2.00000
      4       6.9944      2.00000
      5      13.3642      0.00000
      6      15.3209      0.00000
      7      15.3209      0.00000
      8      17.8805      0.00000
      9      23.1315      0.00000
     10      23.1315      0.00000
     11      23.3836      0.00000
     12      30.1522      0.00000
     13      30.1522      0.00000
     14      30.5180      0.00000
     15      36.6789      0.00000
     16      38.4784      0.00000
     17      38.4784      0.00000
     18      42.4705      0.00000
     19      44.2366      0.00000
     20      44.2366      0.00000
     21      46.8477      0.00000
     22      51.0823      0.00000
     23      51.0823      0.00000
     24      53.4061      0.00000
     25      53.4061      0.00000
     26      56.6613      0.00000
     27      57.2594      0.00000
     28      62.0711      0.00000
     29      62.0711      0.00000
     30      62.2255      0.00000
     31      63.2113      0.00000
     32      63.2113      0.00000
     33      66.4357      0.00000
     34      68.1674      0.00000
     35      72.4442      0.00000
     36      72.4442      0.00000
     37      72.7316      0.00000
     38      74.9633      0.00000
     39      74.9633      0.00000
     40      76.0680      0.00000
     41      79.0059      0.00000
     42      79.0059      0.00000
     43      80.7233      0.00000
     44      85.7986      0.00000
     45      85.7986      0.00000
     46      87.8932      0.00000
     47      89.3866      0.00000
     48      89.3866      0.00000

 k-point     7 :       0.4615    0.0000    0.0000
  band No.  band energies     occupation 
      1      -3.9671      2.00000
      2      -0.3328      2.00000
      3       6.9046      2.00000
      4       6.9046      2.00000
      5      13.2556      0.00000
      6      15.1340      0.00000
      7      15.1340      0.00000
      8      17.9144      0.00000
      9      23.8813      0.00000
     10      24.6806      0.00000
     11      24.6806      0.00000
     12      28.4774      0.00000
     13      28.4774      0.00000
     14      30.2238      0.00000
     15      38.9409      0.00000
     16      40.2658      0.00000
     17      40.2658      0.00000
     18      41.5008      0.00000
     19      43.9178      0.00000
     20      43.9178      0.00000
     21      48.3990      0.00000
     22      49.5579      0.00000
     23      49.5579      0.00000
     24      52.6227      0.00000
     25      52.7560      0.00000
     26      52.7560      0.00000
     27      57.7813      0.00000
     28      61.7504      0.00000
     29      61.7504      0.00000
     30      62.4281      0.00000
     31      62.4281      0.00000
     32      62.7698      0.00000
     33      65.3659      0.00000
     34      67.9657      0.00000
     35      72.2683      0.00000
     36      72.7410      0.00000
     37      72.7410      0.00000
     38      74.7115      0.00000
     39      74.7115      0.00000
     40      76.0042      0.00000
     41      81.1345      0.00000
     42      83.2853      0.00000
     43      83.2853      0.00000
     44      87.0560      0.00000
     45      87.0560      0.00000
     46      89.4233      0.00000
     47      90.0488      0.00000
     48      90.0488      0.00000

 k-point     8 :       0.0769    0.0769    0.0000
  band No.  band energies     occupation 
      1      -7.1934      2.00000
      2       7.4690      2.00000
      3       7.6510      2.00000
      4       7.6510      2.00000
      5      14.3617      0.00000
      6      14.8033      0.00000
      7      15.5743      0.00000
      8      15.5743      0.00000
      9      20.6962      0.00000
     10      22.5342      0.00000
     11      24.7775      0.00000
     12      25.4042      0.00000
     13      25.4042      0.00000
     14      26.4359      0.00000
     15      32.2258      0.00000
     16      40.6843      0.00000
     17      40.6843      0.00000
     18      41.2285      0.00000
     19      48.1441      0.00000
     20      48.6459      0.00000
     21      48.6459      0.00000
     22      49.0350      0.00000
     23      51.5396      0.00000
     24      56.3333      0.00000
     25      56.3333      0.00000
     26      57.7319      0.00000
     27      64.3039      0.00000
     28      66.4764      0.00000
     29      66.4764      0.00000
     30      68.1473      0.00000
     31      68.5429      0.00000
     32      69.6882      0.00000
     33      70.4647      0.00000
     34      70.4647      0.00000
     35      70.4886      0.00000
     36      75.0715      0.00000
     37      75.0778      0.00000
     38      75.0778      0.00000
     39      75.7456      0.00000
     40      77.3764      0.00000
     41      77.3830      0.00000
     42      77.3830      0.00000
     43      80.3564      0.00000
     44      80.4013      0.00000
     45      81.0299      0.00000
     46      81.0299      0.00000
     47      81.6092      0.00000
     48      82.5006      0.00000

 k-point     9 :       0.1538    0.0769    0.0000
  band No.  band energies     occupation 
      1      -6.9283      2.00000
      2       6.3419      2.00000
      3       7.3522      2.00000
      4       7.5771      2.00000
      5      14.3039      0.00000
      6      14.9595      0.00000
      7      16.0275      0.00000
      8      16.1125      0.00000
      9      19.7647      0.00000
     10      22.1970      0.00000
     11      24.6536      0.00000
     12      26.1728      0.00000
     13      26.6137      0.00000
     14      27.9936      0.00000
     15      33.5823      0.00000
     16      39.6354      0.00000
[...]
     16      37.6405      0.00000
     17      39.1006      0.00000
     18      40.7896      0.00000
     19      42.3689      0.00000
     20      43.5534      0.00000
     21      46.9397      0.00000
     22      47.8723      0.00000
     23      49.7743      0.00000
     24      51.2821      0.00000
     25      53.0717      0.00000
     26      54.0899      0.00000
     27      56.5484      0.00000
     28      57.8392      0.00000
     29      58.6559      0.00000
     30      61.2885      0.00000
     31      62.8899      0.00000
     32      66.2774      0.00000
     33      68.7785      0.00000
     34      69.9922      0.00000
     35      71.0373      0.00000
     36      73.2157      0.00000
     37      74.8371      0.00000
     38      75.9870      0.00000
     39      76.6490      0.00000
     40      78.4099      0.00000
     41      80.4437      0.00000
     42      81.6820      0.00000
     43      83.1423      0.00000
     44      85.7009      0.00000
     45      87.5031      0.00000
     46      88.8885      0.00000
     47      90.2485      0.00000
     48      90.8343      0.00000

 k-point    78 :      -0.4615    0.3846    0.1538
  band No.  band energies     occupation 
      1      -3.3779      2.00000
      2       1.5403      2.00000
      3       3.7460      2.00000
      4       4.7098      2.00000
      5      12.0840      0.00000
      6      14.9326      0.00000
      7      17.4595      0.00000
      8      20.5923      0.00000
      9      21.3779      0.00000
     10      25.0823      0.00000
     11      29.1242      0.00000
     12      30.1002      0.00000
     13      31.8370      0.00000
     14      33.1608      0.00000
     15      34.1793      0.00000
     16      37.1814      0.00000
     17      38.1764      0.00000
     18      40.6020      0.00000
     19      42.2690      0.00000
     20      43.6663      0.00000
     21      44.7235      0.00000
     22      48.5864      0.00000
     23      49.7630      0.00000
     24      52.5495      0.00000
     25      53.1439      0.00000
     26      54.1252      0.00000
     27      57.7419      0.00000
     28      59.0120      0.00000
     29      61.2566      0.00000
     30      62.4139      0.00000
     31      63.6332      0.00000
     32      65.1281      0.00000
     33      67.4380      0.00000
     34      70.0378      0.00000
     35      71.3363      0.00000
     36      73.5045      0.00000
     37      73.6097      0.00000
     38      76.3430      0.00000
     39      77.5689      0.00000
     40      78.5023      0.00000
     41      79.2630      0.00000
     42      80.1874      0.00000
     43      82.2906      0.00000
     44      84.4442      0.00000
     45      84.7612      0.00000
     46      86.4220      0.00000
     47      88.7149      0.00000
     48      90.7352      0.00000

 k-point    79 :      -0.3846    0.3846    0.1538
  band No.  band energies     occupation 
      1      -2.7121      2.00000
      2       0.9976      2.00000
      3       3.1544      2.00000
      4       4.3751      2.00000
      5      12.5265      0.00000
      6      15.8884      0.00000
      7      17.2238      0.00000
      8      20.0873      0.00000
      9      21.2459      0.00000
     10      24.7807      0.00000
     11      29.0886      0.00000
     12      30.5402      0.00000
     13      32.5318      0.00000
     14      33.6560      0.00000
     15      35.6215      0.00000
     16      37.0727      0.00000
     17      38.1807      0.00000
     18      39.8743      0.00000
     19      41.9930      0.00000
     20      43.3756      0.00000
     21      45.9358      0.00000
     22      47.7730      0.00000
     23      48.8294      0.00000
     24      52.3358      0.00000
     25      53.0744      0.00000
     26      54.4313      0.00000
     27      55.9580      0.00000
     28      57.7395      0.00000
     29      59.9405      0.00000
     30      61.2903      0.00000
     31      63.9103      0.00000
     32      65.8353      0.00000
     33      67.6562      0.00000
     34      69.6376      0.00000
     35      71.1440      0.00000
     36      73.9155      0.00000
     37      74.3039      0.00000
     38      76.3235      0.00000
     39      77.6731      0.00000
     40      79.9256      0.00000
     41      80.8251      0.00000
     42      81.4996      0.00000
     43      82.6907      0.00000
     44      84.5202      0.00000
     45      86.3007      0.00000
     46      88.0400      0.00000
     47      90.2636      0.00000
     48      90.8823      0.00000

 k-point    80 :      -0.3077    0.3846    0.1538
  band No.  band energies     occupation 
      1      -2.5104      2.00000
      2       0.8570      2.00000
      3       2.7701      2.00000
      4       4.4749      2.00000
      5      12.8697      0.00000
      6      16.2812      0.00000
      7      17.8633      0.00000
      8      18.8368      0.00000
      9      21.1584      0.00000
     10      24.3792      0.00000
     11      29.1214      0.00000
     12      30.5896      0.00000
     13      32.7617      0.00000
     14      34.3385      0.00000
     15      35.7952      0.00000
     16      36.9327      0.00000
     17      38.0921      0.00000
     18      40.2744      0.00000
     19      41.3222      0.00000
     20      43.7109      0.00000
     21      46.2806      0.00000
     22      48.5785      0.00000
     23      49.8329      0.00000
     24      50.7178      0.00000
     25      52.1809      0.00000
     26      53.7521      0.00000
     27      56.3875      0.00000
     28      57.3983      0.00000
     29      59.4721      0.00000
     30      60.4424      0.00000
     31      63.9036      0.00000
     32      66.5515      0.00000
     33      67.8842      0.00000
     34      69.1561      0.00000
     35      71.4669      0.00000
     36      73.6144      0.00000
     37      75.0082      0.00000
     38      75.8216      0.00000
     39      78.2795      0.00000
     40      79.5710      0.00000
     41      81.0575      0.00000
     42      82.0725      0.00000
     43      83.8477      0.00000
     44      84.9581      0.00000
     45      87.5537      0.00000
     46      88.1305      0.00000
     47      89.3603      0.00000
     48      90.2901      0.00000

 k-point    81 :      -0.2308    0.3846    0.1538
  band No.  band energies     occupation 
      1      -2.9608      2.00000
      2       1.1909      2.00000
      3       2.8868      2.00000
      4       4.8843      2.00000
      5      13.0937      0.00000
      6      16.1461      0.00000
      7      17.0436      0.00000
      8      19.6172      0.00000
      9      20.9509      0.00000
     10      23.8426      0.00000
     11      29.2587      0.00000
     12      30.0465      0.00000
     13      32.5640      0.00000
     14      33.5712      0.00000
     15      35.1558      0.00000
     16      37.2761      0.00000
     17      38.8818      0.00000
     18      41.1810      0.00000
     19      41.9224      0.00000
     20      42.9444      0.00000
     21      47.0612      0.00000
     22      47.8944      0.00000
     23      49.0878      0.00000
     24      51.9073      0.00000
     25      53.6912      0.00000
     26      53.9553      0.00000
     27      55.4871      0.00000
     28      56.7885      0.00000
     29      60.1183      0.00000
     30      61.4686      0.00000
     31      63.9996      0.00000
     32      66.4236      0.00000
     33      66.8907      0.00000
     34      70.2987      0.00000
     35      71.3416      0.00000
     36      73.7309      0.00000
     37      73.9901      0.00000
     38      76.5290      0.00000
     39      77.7372      0.00000
     40      78.5327      0.00000
     41      80.2932      0.00000
     42      82.1222      0.00000
     43      82.8798      0.00000
     44      84.7728      0.00000
     45      85.7903      0.00000
     46      88.7282      0.00000
     47      91.0521      0.00000
     48      92.1972      0.00000

 k-point    82 :      -0.3846    0.4615    0.1538
  band No.  band energies     occupation 
      1      -2.4230      2.00000
      2       0.7728      2.00000
      3       3.5779      2.00000
      4       3.8749      2.00000
      5      11.6827      0.00000
      6      14.6392      0.00000
      7      18.6748      0.00000
      8      20.6139      0.00000
      9      21.7864      0.00000
     10      25.5151      0.00000
     11      28.9499      0.00000
     12      31.6984      0.00000
     13      32.2557      0.00000
     14      34.2886      0.00000
     15      35.5574      0.00000
     16      35.7802      0.00000
     17      38.1130      0.00000
     18      38.5935      0.00000
     19      41.5900      0.00000
     20      43.8687      0.00000
     21      45.3797      0.00000
     22      47.2908      0.00000
     23      48.4411      0.00000
     24      49.8696      0.00000
     25      52.8502      0.00000
     26      56.9648      0.00000
     27      57.4090      0.00000
     28      58.8765      0.00000
     29      60.0471      0.00000
     30      62.8718      0.00000
     31      64.1295      0.00000
     32      65.6217      0.00000
     33      66.3672      0.00000
     34      68.0019      0.00000
     35      70.4038      0.00000
     36      72.7965      0.00000
     37      75.5160      0.00000
     38      77.1049      0.00000
     39      77.4963      0.00000
     40      78.1607      0.00000
     41      80.7911      0.00000
     42      82.1480      0.00000
     43      84.1735      0.00000
     44      84.8950      0.00000
     45      87.0776      0.00000
     46      87.6827      0.00000
     47      89.0853      0.00000
     48      90.1443      0.00000

 k-point    83 :      -0.3077    0.4615    0.1538
  band No.  band energies     occupation 
      1      -2.2452      2.00000
      2       0.8136      2.00000
      3       2.8581      2.00000
      4       3.9771      2.00000
      5      12.3634      0.00000
      6      15.8198      0.00000
      7      18.0829      0.00000
      8      19.2772      0.00000
      9      21.7793      0.00000
     10      25.0654      0.00000
     11      28.9327      0.00000
     12      31.7774      0.00000
     13      32.7451      0.00000
     14      34.6246      0.00000
     15      35.7666      0.00000
     16      36.9324      0.00000
     17      36.9597      0.00000
     18      38.6777      0.00000
     19      41.6283      0.00000
     20      44.4908      0.00000
     21      45.2839      0.00000
     22      48.1042      0.00000
     23      49.2581      0.00000
     24      49.9094      0.00000
     25      52.4925      0.00000
     26      54.0682      0.00000
     27      57.4321      0.00000
     28      57.7644      0.00000
     29      60.0234      0.00000
     30      61.8166      0.00000
     31      64.3578      0.00000
     32      65.3273      0.00000
     33      67.1032      0.00000
     34      68.1459      0.00000
     35      71.1143      0.00000
     36      73.3541      0.00000
     37      75.5709      0.00000
     38      76.2605      0.00000
     39      78.4168      0.00000
     40      80.6382      0.00000
     41      80.8775      0.00000
     42      82.4047      0.00000
     43      84.0248      0.00000
     44      85.8089      0.00000
     45      86.6866      0.00000
     46      88.0996      0.00000
     47      89.1754      0.00000
     48      89.4820      0.00000

 k-point    84 :      -0.3077    0.4615    0.2308
  band No.  band energies     occupation 
      1      -2.2804      2.00000
      2       0.9530      2.00000
      3       2.9026      2.00000
      4       3.6541      2.00000
      5      13.0482      0.00000
      6      16.8368      0.00000
      7      16.9888      0.00000
      8      18.5275      0.00000
      9      21.8282      0.00000
     10      25.0420      0.00000
     11      28.8724      0.00000
     12      31.8182      0.00000
     13      32.4390      0.00000
     14      35.2180      0.00000
     15      35.7147      0.00000
     16      36.3230      0.00000
     17      37.6003      0.00000
     18      38.8037      0.00000
     19      41.9847      0.00000
     20      43.5893      0.00000
     21      45.7405      0.00000
     22      48.3490      0.00000
     23      49.6164      0.00000
     24      52.0183      0.00000
     25      52.8055      0.00000
     26      53.2063      0.00000
     27      54.2779      0.00000
     28      57.4695      0.00000
     29      59.6712      0.00000
     30      61.9831      0.00000
     31      64.8261      0.00000
     32      65.8467      0.00000
     33      67.0942      0.00000
     34      67.9559      0.00000
     35      72.2311      0.00000
     36      73.0511      0.00000
     37      74.9944      0.00000
     38      77.6916      0.00000
     39      79.1285      0.00000
     40      80.1308      0.00000
     41      81.1828      0.00000
     42      82.2420      0.00000
     43      82.9212      0.00000
     44      84.6752      0.00000
     45      86.0424      0.00000
     46      88.6020      0.00000
     47      89.4680      0.00000
     48      90.0084      0.00000


--------------------------------------------------------------------------------------------------------


 soft charge-density along one line, spin component           1
         0         1         2         3         4         5         6         7         8         9
 total charge-density along one line
 
 pseudopotential strength for first ion, spin component:           1
 18.083  25.227  -0.000  -0.000  -0.000  -0.000  -0.000  -0.000
 25.227  35.198  -0.000  -0.000  -0.000  -0.000  -0.000  -0.000
 -0.000  -0.000   4.123  -0.000  -0.000   7.680  -0.000  -0.000
 -0.000  -0.000  -0.000   4.123  -0.000  -0.000   7.680  -0.000
 -0.000  -0.000  -0.000  -0.000   4.123  -0.000  -0.000   7.680
 -0.000  -0.000   7.680  -0.000  -0.000  14.319  -0.000  -0.000
 -0.000  -0.000  -0.000   7.680  -0.000  -0.000  14.319  -0.000
 -0.000  -0.000  -0.000  -0.000   7.680  -0.000  -0.000  14.319
 total augmentation occupancy for first ion, spin component:           1
  7.884  -3.547   0.000  -0.000   0.000   0.000   0.000   0.000
 -3.547   1.736   0.000   0.000   0.000   0.000  -0.000   0.000
  0.000  -0.000   3.931   0.000   0.000  -1.064   0.000   0.000
 -0.000   0.000   0.000   3.931   0.000   0.000  -1.064  -0.000
  0.000   0.000   0.000   0.000   3.931   0.000  -0.000  -1.064
  0.000   0.000  -1.064   0.000   0.000   0.303   0.000  -0.000
  0.000   0.000   0.000  -1.064   0.000   0.000   0.303   0.000
  0.000   0.000   0.000   0.000  -1.064  -0.000  -0.000   0.303


------------------------ aborting loop because EDIFF is reached ----------------------------------------


    CHARGE:  cpu time    0.03: real time    0.04
    FORLOC:  cpu time    0.00: real time    0.00
    FORNL :  cpu time    0.11: real time    0.11
    STRESS:  cpu time    0.64: real time    0.64
    FORCOR:  cpu time    0.01: real time    0.01
    FORHAR:  cpu time    0.00: real time    0.00
    MIXING:  cpu time    0.00: real time    0.00
    OFIELD:  cpu time    0.00: real time    0.00

  FORCE on cell =-STRESS in cart. coord.  units (eV):
  Direction    XX          YY          ZZ          XY          YZ          ZX
  --------------------------------------------------------------------------------------
  Alpha Z    11.02920    11.02920    11.02920
  Ewald     -94.46158   -94.46158   -94.46158    -0.00000    -0.00000     0.00000
  Hartree    10.67701    10.67701    10.67701     0.00000     0.00000     0.00000
  E(xc)     -28.37757   -28.37757   -28.37757     0.00000     0.00000     0.00000
  Local     -20.57577   -20.57577   -20.57577     0.00000     0.00000     0.00000
  n-local    34.16386    35.46380    31.43708     0.23417    -0.13090    -0.00338
  augment    -5.73296    -5.73296    -5.73296    -0.00000    -0.00000    -0.00000
  Kinetic    96.56104    91.63740    93.05216     4.55137    -1.43172     1.56393
  Fock        0.00000     0.00000     0.00000     0.00000     0.00000     0.00000
  -------------------------------------------------------------------------------------
  Total      -0.00323    -0.00323    -0.00323     0.00000     0.00000    -0.00000
  in kB      -0.24669    -0.24669    -0.24669     0.00000     0.00000    -0.00000
  external pressure =       -0.25 kB  Pullay stress =        0.00 kB


 VOLUME and BASIS-vectors are now :
 -----------------------------------------------------------------------------
  energy-cutoff  :      520.00
  volume of cell :       21.00
      direct lattice vectors                 reciprocal lattice vectors
     0.000000000  2.189780000  2.189780000    -0.228333440  0.228333440  0.228333440
     2.189780000  0.000000000  2.189780000     0.228333440 -0.228333440  0.228333440
     2.189780000  2.189780000  0.000000000     0.228333440  0.228333440 -0.228333440

  length of vectors
     3.096816575  3.096816575  3.096816575     0.395485119  0.395485119  0.395485119


 FORCES acting on ions
    electron-ion (+dipol)            ewald-force                    non-local-force                 convergence-correction
 -----------------------------------------------------------------------------------------------
   -.718E-07 -.718E-07 -.706E-07   -.207E-14 0.394E-14 0.296E-14   0.555E-16 -.833E-16 -.555E-16   0.226E-08 0.226E-08 0.226E-08
   0.897E-08 0.897E-08 0.703E-08   0.208E-14 -.444E-14 -.286E-14   -.694E-16 -.694E-16 -.607E-16   0.687E-08 0.687E-08 0.687E-08
 -----------------------------------------------------------------------------------------------
   -.628E-07 -.628E-07 -.635E-07   0.154E-16 -.498E-15 0.105E-15   -.139E-16 -.153E-15 -.116E-15   0.912E-08 0.912E-08 0.912E-08
 
 
 POSITION                                       TOTAL-FORCE (eV/Angst)
 -----------------------------------------------------------------------------------
      1.09489      1.09489      1.09489         0.000000      0.000000      0.000000
      0.00000      0.00000      0.00000        -0.000000     -0.000000     -0.000000
 -----------------------------------------------------------------------------------
    total drift:                               -0.000000     -0.000000     -0.000000


--------------------------------------------------------------------------------------------------------



  FREE ENERGIE OF THE ION-ELECTRON SYSTEM (eV)
  ---------------------------------------------------
  free  energy   TOTEN  =       -15.06097204 eV

  energy  without entropy=      -15.06097204  energy(sigma->0) =      -15.06097204
 


--------------------------------------------------------------------------------------------------------


    POTLOK:  cpu time    0.05: real time    0.05


--------------------------------------------------------------------------------------------------------


 writing wavefunctions
     LOOP+:  cpu time  159.17: real time  159.77
    4ORBIT:  cpu time    0.00: real time    0.00

 total amount of memory used by VASP on root node    38164. kBytes
========================================================================

   base      :      30000. kBytes
   nonl-proj :       6211. kBytes
   fftplans  :        414. kBytes
   grid      :        695. kBytes
   one-center:          6. kBytes
   wavefun   :        838. kBytes
 
  
  
 General timing and accounting informations for this job:
 ========================================================
  
                  Total CPU time used (sec):      161.512
                            User time (sec):       66.551
                          System time (sec):       94.962
                         Elapsed time (sec):      162.539
  
                   Maximum memory used (kb):      101728.
                   Average memory used (kb):           0.
  
                          Minor page faults:      1036991
                          Major page faults:            7
                 Voluntary context switches:         3093
