       N       E                     dE             d eps       ncg     rms          rms(c)
DAV:   1     0.240045385619E+04    0.24005E+04   -0.10373E+05  2560   0.772E+02
DAV:   2    -0.376315968324E+03   -0.27768E+04   -0.26853E+04  4480   0.195E+02
DAV:   3    -0.706838342794E+03   -0.33052E+03   -0.32916E+03  3200   0.802E+01
DAV:   4    -0.713869810124E+03   -0.70315E+01   -0.69825E+01  3840   0.149E+01
DAV:   5    -0.714092473509E+03   -0.22266E+00   -0.22240E+00  3456   0.255E+00    0.793E+01
DAV:   6    -0.841069706393E+03   -0.12698E+03   -0.52460E+03  2944   0.144E+02    0.517E+01
DAV:   7    -0.702125465876E+03    0.13894E+03   -0.16258E+02  3072   0.363E+01    0.351E+01
DAV:   8    -0.655276737166E+03    0.46849E+02   -0.17860E+02  3200   0.476E+01    0.120E+01
DAV:   9    -0.678479321438E+03   -0.23203E+02   -0.89215E+01  4480   0.741E+01    0.711E+01
DAV:  10    -0.661442363432E+03    0.17037E+02   -0.10105E+03  2560   0.381E+01    0.165E+01
DAV:  11    -0.662356209710E+03   -0.91385E+00   -0.35257E+00  3840   0.495E+00    0.165E+01
DAV:  12    -0.654782792333E+03    0.75734E+01   -0.12088E+01  3584   0.428E+01    0.613E+00
DAV:  13    -0.654794140047E+03   -0.11348E-01   -0.37816E-01  4224   0.225E+00    0.638E+00
DAV:  14    -0.654704993355E+03    0.89147E-01   -0.77116E-02  4096   0.649E-01    0.619E+00
DAV:  15    -0.654020689291E+03    0.68430E+00   -0.57265E-01  3584   0.112E+01    0.349E+00
DAV:  16    -0.653931804307E+03    0.88885E-01   -0.42080E-02  3712   0.170E+00    0.317E+00
DAV:  17    -0.653705581303E+03    0.22622E+00   -0.44842E-01  3840   0.827E+00    0.101E+00
DAV:  18    -0.653683548044E+03    0.22033E-01   -0.58701E-02  3584   0.205E+00    0.536E-01
DAV:  19    -0.653688044601E+03   -0.44966E-02   -0.11331E-01  3712   0.295E+00    0.790E-01
DAV:  20    -0.653699828438E+03   -0.11784E-01   -0.56141E-02  3712   0.615E-01    0.596E-01
DAV:  21    -0.653701735747E+03   -0.19073E-02   -0.76674E-03  3712   0.224E-01    0.684E-01
DAV:  22    -0.653699894305E+03    0.18414E-02   -0.77451E-04  4224   0.167E-01    0.631E-01
DAV:  23    -0.653699384729E+03    0.50958E-03   -0.34282E-03  3328   0.384E-01    0.459E-01
DAV:  24    -0.653696405954E+03    0.29788E-02   -0.72634E-03  3840   0.681E-01    0.228E-01
DAV:  25    -0.653696399939E+03    0.60151E-05   -0.75364E-04  4352   0.677E-02
   1 F= -.66012435E+03 E0= -.66010924E+03  d E =-.302201E-01
       N       E                     dE             d eps       ncg     rms          rms(c)
DAV:   1    -0.653696631746E+03   -0.22579E-03   -0.14634E+01  2560   0.322E+00    0.448E-01
DAV:   2    -0.653696967962E+03   -0.33622E-03   -0.42090E-02  3200   0.110E+00    0.368E-01
DAV:   3    -0.653696096409E+03    0.87155E-03   -0.18416E-02  3840   0.107E+00    0.267E-01
DAV:   4    -0.653696397700E+03   -0.30129E-03   -0.59433E-03  3456   0.435E-01    0.688E-02
DAV:   5    -0.653696533241E+03   -0.13554E-03   -0.85729E-04  3840   0.344E-02    0.282E-02
DAV:   6    -0.653696641991E+03   -0.10875E-03   -0.72839E-05  3072   0.199E-02    0.125E-02
DAV:   7    -0.653696812648E+03   -0.17066E-03   -0.15965E-05  2816   0.722E-03    0.406E-03
DAV:   8    -0.653696884156E+03   -0.71508E-04   -0.32931E-06  3200   0.277E-03
   2 F= -.66012484E+03 E0= -.66011000E+03  d E =-.296778E-01
       N       E                     dE             d eps       ncg     rms          rms(c)
DAV:   1    -0.653695267893E+03    0.15448E-02   -0.58235E+01  2560   0.633E+00    0.814E-01
DAV:   2    -0.653695254922E+03    0.12971E-04   -0.12507E-01  3072   0.242E-01    0.468E-01
DAV:   3    -0.653695683172E+03   -0.42825E-03   -0.25497E-02  3840   0.300E-01    0.354E-01
DAV:   4    -0.653695053088E+03    0.63008E-03   -0.18766E-02  3712   0.537E-01    0.162E-01
DAV:   5    -0.653695004065E+03    0.49024E-04   -0.38528E-03  3840   0.491E-01    0.917E-02
DAV:   6    -0.653694939680E+03    0.64384E-04   -0.63131E-04  3712   0.193E-01
   3 F= -.66012290E+03 E0= -.66010804E+03  d E =-.297202E-01
       N       E                     dE             d eps       ncg     rms          rms(c)
DAV:   1    -0.653664896650E+03    0.30107E-01   -0.28950E+01  2560   0.492E+00    0.124E+00
DAV:   2    -0.653659416317E+03    0.54803E-02   -0.46798E-01  2944   0.964E-01    0.113E+00
DAV:   3    -0.653644181044E+03    0.15235E-01   -0.22087E-01  3200   0.137E+00    0.524E-01
DAV:   4    -0.653644012316E+03    0.16873E-03   -0.34583E-02  3840   0.142E+00    0.376E-01
DAV:   5    -0.653642824161E+03    0.11882E-02   -0.11763E-02  3328   0.699E-01    0.753E-02
DAV:   6    -0.653642802445E+03    0.21716E-04   -0.78876E-04  3840   0.381E-02
   4 F= -.66007067E+03 E0= -.66005584E+03  d E =-.296529E-01
       N       E                     dE             d eps       ncg     rms          rms(c)
DAV:   1    -0.653719337984E+03   -0.76514E-01   -0.55644E+01  2560   0.691E+00    0.259E+00
DAV:   2    -0.653801352565E+03   -0.82015E-01   -0.33393E+00  2816   0.234E+00    0.274E+00
DAV:   3    -0.653655666732E+03    0.14569E+00   -0.73592E-01  2560   0.292E+00    0.845E-01
DAV:   4    -0.653653192421E+03    0.24743E-02   -0.11047E-01  3840   0.217E+00    0.587E-01
DAV:   5    -0.653653763235E+03   -0.57081E-03   -0.63480E-02  3328   0.127E+00    0.507E-01
DAV:   6    -0.653651543570E+03    0.22197E-02   -0.49608E-02  3584   0.358E-01    0.185E-01
DAV:   7    -0.653651055220E+03    0.48835E-03   -0.27926E-03  3584   0.912E-02    0.624E-02
DAV:   8    -0.653651003856E+03    0.51364E-04   -0.69203E-04  3712   0.315E-02
   5 F= -.66007912E+03 E0= -.66006424E+03  d E =-.297517E-01
       N       E                     dE             d eps       ncg     rms          rms(c)
DAV:   1    -0.653710570424E+03   -0.59515E-01   -0.28429E+01  2560   0.512E+00    0.151E+00
DAV:   2    -0.653703499533E+03    0.70709E-02   -0.73819E-01  3456   0.129E+00    0.158E+00
DAV:   3    -0.653678065402E+03    0.25434E-01   -0.41082E-01  2944   0.171E+00    0.675E-01
DAV:   4    -0.653675680714E+03    0.23847E-02   -0.50503E-02  3584   0.159E+00    0.420E-01
DAV:   5    -0.653673692424E+03    0.19883E-02   -0.18300E-02  3840   0.809E-01    0.104E-01
DAV:   6    -0.653673782921E+03   -0.90496E-04   -0.97825E-04  3456   0.724E-02
   6 F= -.66010018E+03 E0= -.66008522E+03  d E =-.299112E-01
       N       E                     dE             d eps       ncg     rms          rms(c)
DAV:   1    -0.653690961276E+03   -0.17269E-01   -0.56129E+01  2560   0.659E+00    0.121E+00
DAV:   2    -0.653687557482E+03    0.34038E-02   -0.44981E-01  3328   0.137E+00    0.108E+00
DAV:   3    -0.653672437649E+03    0.15120E-01   -0.16630E-01  3328   0.183E+00    0.577E-01
DAV:   4    -0.653671529230E+03    0.90842E-03   -0.49087E-02  3456   0.163E+00    0.416E-01
DAV:   5    -0.653669272060E+03    0.22572E-02   -0.14920E-02  3840   0.949E-01    0.940E-02
DAV:   6    -0.653669297130E+03   -0.25069E-04   -0.92913E-04  3840   0.708E-02
   7 F= -.66009895E+03 E0= -.66008402E+03  d E =-.298504E-01
       N       E                     dE             d eps       ncg     rms          rms(c)
DAV:   1    -0.653700044407E+03   -0.30772E-01   -0.14805E+01  2560   0.374E+00    0.661E-01
DAV:   2    -0.653698345900E+03    0.16985E-02   -0.92261E-02  3328   0.642E-01    0.489E-01
DAV:   3    -0.653696595618E+03    0.17503E-02   -0.45719E-02  2944   0.964E-01    0.365E-01
DAV:   4    -0.653696281697E+03    0.31392E-03   -0.14739E-02  3200   0.912E-01    0.201E-01
DAV:   5    -0.653695923157E+03    0.35854E-03   -0.40691E-03  3840   0.446E-01    0.457E-02
DAV:   6    -0.653696004700E+03   -0.81543E-04   -0.17999E-04  3456   0.721E-02
   8 F= -.66012397E+03 E0= -.66010913E+03  d E =-.296886E-01
       N       E                     dE             d eps       ncg     rms          rms(c)
DAV:   1    -0.653694617783E+03    0.13054E-02   -0.31054E+00  2560   0.165E+00    0.537E-01
DAV:   2    -0.653695580592E+03   -0.96281E-03   -0.63697E-03  3456   0.108E-01    0.332E-01
DAV:   3    -0.653697637489E+03   -0.20569E-02   -0.13538E-02  3456   0.388E-01    0.282E-01
DAV:   4    -0.653696899551E+03    0.73794E-03   -0.91218E-03  3456   0.526E-01    0.973E-02
DAV:   5    -0.653696885507E+03    0.14043E-04   -0.87476E-04  3840   0.227E-01
   9 F= -.66012483E+03 E0= -.66011000E+03  d E =-.296611E-01
       N       E                     dE             d eps       ncg     rms          rms(c)
DAV:   1    -0.653665116023E+03    0.31784E-01   -0.16675E+00  2560   0.121E+00    0.941E-01
DAV:   2    -0.653671995602E+03   -0.68796E-02   -0.41585E-01  3328   0.836E-01    0.109E+00
DAV:   3    -0.653654465862E+03    0.17530E-01   -0.11829E-01  3072   0.108E+00    0.335E-01
DAV:   4    -0.653655000457E+03   -0.53459E-03   -0.14592E-02  3456   0.927E-01    0.276E-01
DAV:   5    -0.653654702214E+03    0.29824E-03   -0.66958E-03  3200   0.524E-01    0.115E-01
DAV:   6    -0.653654545256E+03    0.15696E-03   -0.17663E-03  3584   0.609E-02    0.149E-02
DAV:   7    -0.653654566171E+03   -0.20915E-04   -0.39164E-05  3712   0.151E-02
  10 F= -.66008268E+03 E0= -.66006778E+03  d E =-.297890E-01
       N       E                     dE             d eps       ncg     rms          rms(c)
DAV:   1    -0.653683103846E+03   -0.28559E-01   -0.37351E+00  2560   0.187E+00    0.157E+00
DAV:   2    -0.653676690768E+03    0.64131E-02   -0.86623E-01  2944   0.127E+00    0.180E+00
DAV:   3    -0.653644891494E+03    0.31799E-01   -0.41469E-01  2944   0.171E+00    0.606E-01
DAV:   4    -0.653645843597E+03   -0.95210E-03   -0.60730E-02  3328   0.187E+00    0.527E-01
DAV:   5    -0.653643061095E+03    0.27825E-02   -0.22136E-02  3584   0.101E+00    0.189E-01
DAV:   6    -0.653642668999E+03    0.39210E-03   -0.38681E-03  3712   0.644E-02    0.190E-02
DAV:   7    -0.653642746375E+03   -0.77375E-04   -0.73073E-05  3840   0.293E-02
  11 F= -.66007060E+03 E0= -.66005584E+03  d E =-.295250E-01
       N       E                     dE             d eps       ncg     rms          rms(c)
DAV:   1    -0.653713170354E+03   -0.70501E-01   -0.19493E+00  2560   0.132E+00    0.151E+00
DAV:   2    -0.653739455198E+03   -0.26285E-01   -0.12653E+00  3200   0.133E+00    0.182E+00
DAV:   3    -0.653685329281E+03    0.54126E-01   -0.29516E-01  2688   0.168E+00    0.551E-01
DAV:   4    -0.653684661075E+03    0.66821E-03   -0.32262E-02  3712   0.124E+00    0.385E-01
DAV:   5    -0.653684962203E+03   -0.30113E-03   -0.30157E-02  3328   0.712E-01    0.315E-01
DAV:   6    -0.653683521039E+03    0.14412E-02   -0.14117E-02  3200   0.177E-01    0.365E-02
DAV:   7    -0.653683621405E+03   -0.10037E-03   -0.25560E-04  3456   0.324E-02    0.154E-02
DAV:   8    -0.653683634369E+03   -0.12964E-04   -0.48217E-05  2944   0.768E-03
  12 F= -.66011048E+03 E0= -.66009556E+03  d E =-.298525E-01
       N       E                     dE             d eps       ncg     rms          rms(c)
DAV:   1    -0.653687599247E+03   -0.39778E-02   -0.32977E+00  2560   0.173E+00    0.878E-01
DAV:   2    -0.653686659610E+03    0.93964E-03   -0.20295E-01  3456   0.487E-01    0.831E-01
DAV:   3    -0.653680071673E+03    0.65879E-02   -0.86564E-02  3328   0.746E-01    0.360E-01
DAV:   4    -0.653681874319E+03   -0.18026E-02   -0.22727E-02  3328   0.118E+00    0.376E-01
DAV:   5    -0.653680478824E+03    0.13955E-02   -0.94593E-03  3712   0.759E-01    0.484E-02
DAV:   6    -0.653680580505E+03   -0.10168E-03   -0.36176E-04  3456   0.309E-02    0.141E-02
DAV:   7    -0.653680665878E+03   -0.85373E-04   -0.31042E-05  2944   0.186E-02
  13 F= -.66010975E+03 E0= -.66009499E+03  d E =-.295118E-01
