 vasp.5.4.1 05Feb16 (build Nov 20 2017 09:58:24) complex                        
  
 executed on           IFC91_ompi date 2022.11.11  04:57:20
 running on  128 total cores
 distrk:  each k-point on  128 cores,    1 groups
 distr:  one band on NCORES_PER_BAND=   1 cores,  128 groups


--------------------------------------------------------------------------------------------------------


 INCAR:
 POTCAR:    PAW_PBE C 08Apr2002                   
 POTCAR:    PAW_PBE N 08Apr2002                   
 POTCAR:    PAW_PBE Cu 22Jun2005                  
 POTCAR:    PAW_PBE O 08Apr2002                   
 POTCAR:    PAW_PBE H 15Jun2001                   

 ----------------------------------------------------------------------------- 
|                                                                             |
|           W    W    AA    RRRRR   N    N  II  N    N   GGGG   !!!           |
|           W    W   A  A   R    R  NN   N  II  NN   N  G    G  !!!           |
|           W    W  A    A  R    R  N N  N  II  N N  N  G       !!!           |
|           W WW W  AAAAAA  RRRRR   N  N N  II  N  N N  G  GGG   !            |
|           WW  WW  A    A  R   R   N   NN  II  N   NN  G    G                |
|           W    W  A    A  R    R  N    N  II  N    N   GGGG   !!!           |
|                                                                             |
|      For optimal performance we recommend to set                            |
|        NCORE= 4 - approx SQRT( number of cores)                             |
|      NCORE specifies how many cores store one orbital (NPAR=cpu/NCORE).     |
|      This setting can  greatly improve the performance of VASP for DFT.     |
|      The default, NPAR=number of cores might be grossly inefficient         |
|      on modern multi-core architectures or massively parallel machines.     |
|      Do your own testing !!!!                                               |
|      Unfortunately you need to use the default for GW and RPA calculations. |
|      (for HF NCORE is supported but not extensively tested yet)             |
|                                                                             |
 ----------------------------------------------------------------------------- 

 POTCAR:    PAW_PBE C 08Apr2002                   
   VRHFIN =C: s2p2                                                              
   LEXCH  = PE                                                                  
   EATOM  =   147.1560 eV,   10.8157 Ry                                         
                                                                                
   TITEL  = PAW_PBE C 08Apr2002                                                 
   LULTRA =        F    use ultrasoft PP ?                                      
   IUNSCR =        1    unscreen: 0-lin 1-nonlin 2-no                           
   RPACOR =    1.200    partial core radius                                     
   POMASS =   12.011; ZVAL   =    4.000    mass and valenz                      
   RCORE  =    1.500    outmost cutoff radius                                   
   RWIGS  =    1.630; RWIGS  =    0.863    wigner-seitz radius (au A)           
   ENMAX  =  400.000; ENMIN  =  300.000 eV                                      
   ICORE  =        2    local potential                                         
   LCOR   =        T    correct aug charges                                     
   LPAW   =        T    paw PP                                                  
   EAUG   =  644.873                                                            
   DEXC   =    0.000                                                            
   RMAX   =    1.529    core radius for proj-oper                               
   RAUG   =    1.300    factor for augmentation sphere                          
   RDEP   =    1.501    radius for radial grids                                 
   RDEPT  =    1.300    core radius for aug-charge                              
                                                                                
   Atomic configuration                                                         
    4 entries                                                                   
     n  l   j            E        occ.                                          
     1  0  0.50      -273.3789   2.0000                                         
     2  0  0.50       -13.7508   2.0000                                         
     2  1  0.50        -5.2854   2.0000                                         
     3  2  1.50        -5.4423   0.0000                                         
   Description                                                                  
     l       E           TYP  RCUT    TYP  RCUT                                 
     0    -13.7508458     23  1.200                                             
     0     -8.2022199     23  1.200                                             
     1     -5.2854383     23  1.500                                             
     1     34.0145650     23  1.500                                             
     2     -5.4423304      7  1.500                                             
  local pseudopotential read in
  partial core-charges read in
  partial kinetic energy density read in
  atomic valenz-charges read in
  non local Contribution for L=           0  read in
    real space projection operators read in
  non local Contribution for L=           0  read in
    real space projection operators read in
  non local Contribution for L=           1  read in
    real space projection operators read in
  non local Contribution for L=           1  read in
    real space projection operators read in
    PAW grid and wavefunctions read in
 
   number of l-projection  operators is LMAX  =           4
   number of lm-projection operators is LMMAX =           8
 
 POTCAR:    PAW_PBE N 08Apr2002                   
   VRHFIN =N: s2p3                                                              
   LEXCH  = PE                                                                  
   EATOM  =   264.5486 eV,   19.4438 Ry                                         
                                                                                
   TITEL  = PAW_PBE N 08Apr2002                                                 
   LULTRA =        F    use ultrasoft PP ?                                      
   IUNSCR =        1    unscreen: 0-lin 1-nonlin 2-no                           
   RPACOR =    1.200    partial core radius                                     
   POMASS =   14.001; ZVAL   =    5.000    mass and valenz                      
   RCORE  =    1.500    outmost cutoff radius                                   
   RWIGS  =    1.400; RWIGS  =    0.741    wigner-seitz radius (au A)           
   ENMAX  =  400.000; ENMIN  =  300.000 eV                                      
   ICORE  =        2    local potential                                         
   LCOR   =        T    correct aug charges                                     
   LPAW   =        T    paw PP                                                  
   EAUG   =  627.112                                                            
   DEXC   =    0.000                                                            
   RMAX   =    1.529    core radius for proj-oper                               
   RAUG   =    1.300    factor for augmentation sphere                          
   RDEP   =    1.514    radius for radial grids                                 
   RDEPT  =    1.338    core radius for aug-charge                              
                                                                                
   Atomic configuration                                                         
    4 entries                                                                   
     n  l   j            E        occ.                                          
     1  0  0.50      -384.7179   2.0000                                         
     2  0  0.50       -18.5828   2.0000                                         
     2  1  0.50        -7.0898   3.0000                                         
     3  2  1.50        -6.8029   0.0000                                         
   Description                                                                  
     l       E           TYP  RCUT    TYP  RCUT                                 
     0    -18.5828119     23  1.200                                             
     0    -13.5018863     23  1.200                                             
     1     -7.0897853     23  1.500                                             
     1      9.5240782     23  1.500                                             
     2     -6.8029130      7  1.500                                             
  local pseudopotential read in
  partial core-charges read in
  partial kinetic energy density read in
  atomic valenz-charges read in
  non local Contribution for L=           0  read in
    real space projection operators read in
  non local Contribution for L=           0  read in
    real space projection operators read in
  non local Contribution for L=           1  read in
    real space projection operators read in
  non local Contribution for L=           1  read in
    real space projection operators read in
    PAW grid and wavefunctions read in
 
   number of l-projection  operators is LMAX  =           4
   number of lm-projection operators is LMMAX =           8
 
 POTCAR:    PAW_PBE Cu 22Jun2005                  
   VRHFIN =Cu: d10 p1                                                           
   LEXCH  = PE                                                                  
   EATOM  =  1390.9808 eV,  102.2342 Ry                                         
                                                                                
   TITEL  = PAW_PBE Cu 22Jun2005                                                
   LULTRA =        F    use ultrasoft PP ?                                      
   IUNSCR =        1    unscreen: 0-lin 1-nonlin 2-no                           
   RPACOR =    2.000    partial core radius                                     
   POMASS =   63.546; ZVAL   =   11.000    mass and valenz                      
   RCORE  =    2.300    outmost cutoff radius                                   
   RWIGS  =    2.200; RWIGS  =    1.164    wigner-seitz radius (au A)           
   ENMAX  =  295.446; ENMIN  =  221.585 eV                                      
   ICORE  =        3    local potential                                         
   LCOR   =        T    correct aug charges                                     
   LPAW   =        T    paw PP                                                  
   EAUG   =  586.980                                                            
   DEXC   =    0.000                                                            
   RMAX   =    2.344    core radius for proj-oper                               
   RAUG   =    1.300    factor for augmentation sphere                          
   RDEP   =    2.302    radius for radial grids                                 
   RDEPT  =    1.771    core radius for aug-charge                              
                                                                                
   Atomic configuration                                                         
    9 entries                                                                   
     n  l   j            E        occ.                                          
     1  0  0.50     -8850.2468   2.0000                                         
     2  0  0.50     -1062.3498   2.0000                                         
     2  1  1.50      -916.8226   6.0000                                         
     3  0  0.50      -114.6929   2.0000                                         
     3  1  1.50       -72.1325   6.0000                                         
     3  2  2.50        -5.0394  10.0000                                         
     4  0  0.50        -4.6097   1.0000                                         
     4  1  0.50        -4.0817   0.0000                                         
     4  3  2.50        -1.3606   0.0000                                         
   Description                                                                  
     l       E           TYP  RCUT    TYP  RCUT                                 
     2     -5.0393973     23  2.200                                             
     2     10.8846608     23  2.200                                             
     0     -4.6097109     23  2.200                                             
     0      8.2520465     23  2.200                                             
     1     -2.7211652     23  2.200                                             
     1     21.7055443     23  2.200                                             
     3      2.7211652     23  2.300                                             
  local pseudopotential read in
  partial core-charges read in
  partial kinetic energy density read in
  atomic valenz-charges read in
  non local Contribution for L=           2  read in
    real space projection operators read in
  non local Contribution for L=           2  read in
    real space projection operators read in
  non local Contribution for L=           0  read in
    real space projection operators read in
  non local Contribution for L=           0  read in
    real space projection operators read in
  non local Contribution for L=           1  read in
    real space projection operators read in
  non local Contribution for L=           1  read in
    real space projection operators read in
    PAW grid and wavefunctions read in
 
   number of l-projection  operators is LMAX  =           6
   number of lm-projection operators is LMMAX =          18
 
 POTCAR:    PAW_PBE O 08Apr2002                   
   VRHFIN =O: s2p4                                                              
   LEXCH  = PE                                                                  
   EATOM  =   432.3788 eV,   31.7789 Ry                                         
                                                                                
   TITEL  = PAW_PBE O 08Apr2002                                                 
   LULTRA =        F    use ultrasoft PP ?                                      
   IUNSCR =        1    unscreen: 0-lin 1-nonlin 2-no                           
   RPACOR =    1.200    partial core radius                                     
   POMASS =   16.000; ZVAL   =    6.000    mass and valenz                      
   RCORE  =    1.520    outmost cutoff radius                                   
   RWIGS  =    1.550; RWIGS  =    0.820    wigner-seitz radius (au A)           
   ENMAX  =  400.000; ENMIN  =  300.000 eV                                      
   ICORE  =        2    local potential                                         
   LCOR   =        T    correct aug charges                                     
   LPAW   =        T    paw PP                                                  
   EAUG   =  605.392                                                            
   DEXC   =    0.000                                                            
   RMAX   =    1.553    core radius for proj-oper                               
   RAUG   =    1.300    factor for augmentation sphere                          
   RDEP   =    1.550    radius for radial grids                                 
   RDEPT  =    1.329    core radius for aug-charge                              
                                                                                
   Atomic configuration                                                         
    4 entries                                                                   
     n  l   j            E        occ.                                          
     1  0  0.50      -514.6923   2.0000                                         
     2  0  0.50       -23.9615   2.0000                                         
     2  1  0.50        -9.0305   4.0000                                         
     3  2  1.50        -9.5241   0.0000                                         
   Description                                                                  
     l       E           TYP  RCUT    TYP  RCUT                                 
     0    -23.9615318     23  1.200                                             
     0     -9.5240782     23  1.200                                             
     1     -9.0304911     23  1.520                                             
     1      8.1634956     23  1.520                                             
     2     -9.5240782      7  1.500                                             
  local pseudopotential read in
  partial core-charges read in
  partial kinetic energy density read in
  kinetic energy density of atom read in
  atomic valenz-charges read in
  non local Contribution for L=           0  read in
    real space projection operators read in
  non local Contribution for L=           0  read in
    real space projection operators read in
  non local Contribution for L=           1  read in
    real space projection operators read in
  non local Contribution for L=           1  read in
    real space projection operators read in
    PAW grid and wavefunctions read in
 
   number of l-projection  operators is LMAX  =           4
   number of lm-projection operators is LMMAX =           8
 
 POTCAR:    PAW_PBE H 15Jun2001                   
   VRHFIN =H: ultrasoft test                                                    
   LEXCH  = PE                                                                  
   EATOM  =    12.4884 eV,    0.9179 Ry                                         
                                                                                
   TITEL  = PAW_PBE H 15Jun2001                                                 
   LULTRA =        F    use ultrasoft PP ?                                      
   IUNSCR =        0    unscreen: 0-lin 1-nonlin 2-no                           
   RPACOR =    0.000    partial core radius                                     
   POMASS =    1.000; ZVAL   =    1.000    mass and valenz                      
   RCORE  =    1.100    outmost cutoff radius                                   
   RWIGS  =    0.700; RWIGS  =    0.370    wigner-seitz radius (au A)           
   ENMAX  =  250.000; ENMIN  =  200.000 eV                                      
   RCLOC  =    0.701    cutoff for local pot                                    
   LCOR   =        T    correct aug charges                                     
   LPAW   =        T    paw PP                                                  
   EAUG   =  400.000                                                            
   RMAX   =    1.123    core radius for proj-oper                               
   RAUG   =    1.200    factor for augmentation sphere                          
   RDEP   =    1.112    radius for radial grids                                 
   RDEPT  =    0.926    core radius for aug-charge                              
                                                                                
   Atomic configuration                                                         
    2 entries                                                                   
     n  l   j            E        occ.                                          
     1  0  0.50        -6.4927   1.0000                                         
     2  1  0.50        -3.4015   0.0000                                         
   Description                                                                  
     l       E           TYP  RCUT    TYP  RCUT                                 
     0     -6.4927494     23  1.100                                             
     0      6.8029130     23  1.100                                             
     1     -4.0817478     23  1.100                                             
  local pseudopotential read in
  atomic valenz-charges read in
  non local Contribution for L=           0  read in
    real space projection operators read in
  non local Contribution for L=           0  read in
    real space projection operators read in
  non local Contribution for L=           1  read in
    real space projection operators read in
    PAW grid and wavefunctions read in
 
   number of l-projection  operators is LMAX  =           3
   number of lm-projection operators is LMMAX =           5
 
 Optimization of the real space projectors (new method)

 maximal supplied QI-value         = 25.13
 optimisation between [QCUT,QGAM] = [ 10.81, 21.61] = [ 32.71,130.83] Ry 
 Optimized for a Real-space Cutoff    1.23 Angstroem

   l    n(q)    QCUT    max X(q) W(low)/X(q) W(high)/X(q)  e(spline) 
   0      8    10.807   115.676    0.36E-03    0.72E-03    0.24E-06
   0      8    10.807    87.132    0.35E-03    0.71E-03    0.24E-06
   1      7    10.807     4.429    0.19E-03    0.39E-03    0.11E-06
   1      7    10.807     2.733    0.14E-03    0.28E-03    0.13E-06
 Optimization of the real space projectors (new method)

 maximal supplied QI-value         = 25.13
 optimisation between [QCUT,QGAM] = [ 10.81, 21.61] = [ 32.71,130.83] Ry 
 Optimized for a Real-space Cutoff    1.23 Angstroem

   l    n(q)    QCUT    max X(q) W(low)/X(q) W(high)/X(q)  e(spline) 
   0      8    10.807    79.467    0.34E-03    0.68E-03    0.21E-06
   0      8    10.807    66.151    0.34E-03    0.67E-03    0.21E-06
   1      7    10.807    14.030    0.45E-03    0.13E-02    0.11E-05
   1      7    10.807     9.831    0.48E-03    0.13E-02    0.11E-05
 Optimization of the real space projectors (new method)

 maximal supplied QI-value         = 16.25
 optimisation between [QCUT,QGAM] = [ 10.73, 21.61] = [ 32.22,130.83] Ry 
 Optimized for a Real-space Cutoff    1.42 Angstroem

   l    n(q)    QCUT    max X(q) W(low)/X(q) W(high)/X(q)  e(spline) 
   2      8    10.726     4.610    0.15E-03    0.25E-03    0.14E-06
   2      8    10.726     8.522    0.25E-03    0.43E-03    0.27E-06
   0      9    10.726    51.609    0.94E-04    0.10E-03    0.12E-06
   0      9    10.726    27.747    0.85E-04    0.96E-04    0.11E-06
   1      9    10.726    20.408    0.25E-03    0.14E-03    0.12E-06
   1      9    10.726    13.425    0.22E-03    0.13E-03    0.11E-06
 Optimization of the real space projectors (new method)

 maximal supplied QI-value         = 24.76
 optimisation between [QCUT,QGAM] = [ 10.64, 21.54] = [ 31.73,129.89] Ry 
 Optimized for a Real-space Cutoff    1.23 Angstroem

   l    n(q)    QCUT    max X(q) W(low)/X(q) W(high)/X(q)  e(spline) 
   0      8    10.645    20.381    0.38E-03    0.60E-03    0.15E-06
   0      8    10.645    15.268    0.40E-03    0.65E-03    0.17E-06
   1      7    10.645     5.964    0.30E-03    0.63E-03    0.18E-06
   1      7    10.645     5.382    0.24E-03    0.53E-03    0.16E-06
 Optimization of the real space projectors (new method)

 maximal supplied QI-value         = 34.20
 optimisation between [QCUT,QGAM] = [ 10.60, 21.55] = [ 31.48,130.03] Ry 
 Optimized for a Real-space Cutoff    1.23 Angstroem

   l    n(q)    QCUT    max X(q) W(low)/X(q) W(high)/X(q)  e(spline) 
   0      8    10.603    19.460    0.37E-03    0.59E-03    0.23E-06
   0      8    10.603    12.209    0.35E-03    0.56E-03    0.22E-06
   1      7    10.603     4.655    0.70E-04    0.28E-03    0.29E-06
  PAW_PBE C 08Apr2002                   :
 energy of atom  1       EATOM= -147.1560
 kinetic energy error for atom=    0.0116 (will be added to EATOM!!)
  PAW_PBE N 08Apr2002                   :
 energy of atom  2       EATOM= -264.5486
 kinetic energy error for atom=    0.0253 (will be added to EATOM!!)
  PAW_PBE Cu 22Jun2005                  :
 energy of atom  3       EATOM=-1390.9808
 kinetic energy error for atom=    0.0097 (will be added to EATOM!!)
  PAW_PBE O 08Apr2002                   :
 energy of atom  4       EATOM= -432.3788
 kinetic energy error for atom=    0.0389 (will be added to EATOM!!)
  PAW_PBE H 15Jun2001                   :
 energy of atom  5       EATOM=  -12.4884
 kinetic energy error for atom=    0.0045 (will be added to EATOM!!)
 
 
 POSCAR: CONTCAR                                 
  positions in direct lattice
  No initial velocities read in
 exchange correlation table for  LEXCH =        8
   RHO(1)=    0.500       N(1)  =     2000
   RHO(2)=  100.500       N(2)  =     4000
 


--------------------------------------------------------------------------------------------------------


 ion  position               nearest neighbor table
   1  0.999  0.998  0.499-  58 1.42   2 1.43  68 1.44
   2  0.055  0.109  0.499-  13 1.42   1 1.43  15 1.44
   3  0.168  0.001  0.498-  60 1.42   4 1.42  58 1.43
   4  0.224  0.113  0.498-   3 1.42  15 1.42  17 1.43
   5  0.334  0.002  0.497-   6 1.42  60 1.43  62 1.43
   6  0.390  0.114  0.497-   5 1.42  19 1.43  17 1.43
   7  0.500  0.001  0.497-  62 1.42   8 1.42  64 1.43
   8  0.556  0.113  0.497-   7 1.42  21 1.42  19 1.43
   9  0.665  0.998  0.498-  64 1.42  10 1.43  66 1.44
  10  0.721  0.109  0.498-  23 1.42   9 1.43  21 1.44
  11  0.831  0.996  0.500-  12 1.42  68 1.44  66 1.44
  12  0.887  0.107  0.499-  11 1.42  23 1.44  13 1.44
  13  0.999  0.164  0.499-  14 1.42   2 1.42  12 1.44
  14  0.054  0.276  0.498-  13 1.42  25 1.43  27 1.43
  15  0.167  0.167  0.498-  16 1.42   4 1.42   2 1.44
  16  0.222  0.278  0.498-  15 1.42  27 1.42  29 1.44
  17  0.335  0.170  0.498-   6 1.43  18 1.43   4 1.43
  18  0.391  0.282  0.498-  29 1.42  17 1.43  31 1.44
  19  0.501  0.170  0.497-   6 1.43  20 1.43   8 1.43
  20  0.557  0.282  0.498-  33 1.42  19 1.43  31 1.44
  21  0.666  0.167  0.498-  22 1.42   8 1.42  10 1.44
  22  0.722  0.278  0.498-  21 1.42  35 1.42  33 1.44
  23  0.832  0.164  0.499-  24 1.42  10 1.42  12 1.44
  24  0.888  0.276  0.498-  23 1.42  25 1.43  35 1.43
  25  0.999  0.331  0.498-  26 1.42  24 1.43  14 1.43
  26  0.055  0.443  0.497-  25 1.42  37 1.42  39 1.42
  27  0.165  0.332  0.498-  28 1.42  16 1.42  14 1.43
  28  0.220  0.443  0.497-  27 1.42  39 1.42  41 1.42
  29  0.334  0.335  0.497-  18 1.42  30 1.42  16 1.44
  30  0.389  0.447  0.497-  41 1.42  29 1.42  43 1.44
  31  0.503  0.340  0.498-  32 1.44  18 1.44  20 1.44
  32  0.560  0.453  0.498-  31 1.44  44 1.45  43 1.45
  33  0.667  0.335  0.498-  20 1.42  34 1.42  22 1.44
  34  0.724  0.447  0.498-  45 1.42  33 1.42  44 1.44
  35  0.833  0.332  0.498-  36 1.42  22 1.42  24 1.43
  36  0.889  0.443  0.498-  35 1.42  37 1.42  45 1.42
  37  1.000  0.499  0.497-  36 1.42  38 1.42  26 1.42
  38  0.056  0.610  0.497-  47 1.41  49 1.42  37 1.42
  39  0.165  0.499  0.497-  28 1.42  40 1.42  26 1.42
  40  0.221  0.610  0.496-  51 1.41  49 1.42  39 1.42
  41  0.331  0.499  0.496-  42 1.41  28 1.42  30 1.42
  42  0.384  0.610  0.495-  53 1.41  41 1.41  51 1.42
  43  0.501  0.507  0.497-  69 1.36  30 1.44  32 1.45
  44  0.673  0.507  0.498-  70 1.36  34 1.44  32 1.45
  45  0.835  0.499  0.497-  46 1.41  36 1.42  34 1.42
  46  0.892  0.610  0.497-  55 1.41  45 1.41  47 1.42
  47  0.002  0.666  0.497-  38 1.41  46 1.42  48 1.42
  48  0.057  0.778  0.497-  59 1.42  47 1.42  57 1.42
  49  0.167  0.667  0.496-  40 1.42  38 1.42  50 1.42
  50  0.222  0.778  0.496-  49 1.42  61 1.42  59 1.42
  51  0.331  0.666  0.495-  40 1.41  42 1.42  52 1.42
  52  0.387  0.778  0.495-  61 1.42  51 1.42  63 1.42
  53  0.494  0.664  0.495-  69 1.35  42 1.41  54 1.43
  54  0.551  0.776  0.496-  65 1.41  63 1.42  53 1.43
  55  0.837  0.664  0.497-  70 1.35  46 1.41  56 1.43
  56  0.891  0.776  0.497-  67 1.41  57 1.42  55 1.43
  57  0.002  0.833  0.497-  58 1.42  48 1.42  56 1.42
  58  0.056  0.944  0.498-  57 1.42   1 1.42   3 1.43
  59  0.168  0.834  0.496-  48 1.42  50 1.42  60 1.42
  60  0.223  0.946  0.497-   3 1.42  59 1.42   5 1.43
  61  0.333  0.834  0.496-  52 1.42  50 1.42  62 1.42
  62  0.389  0.946  0.496-   7 1.42  61 1.42   5 1.43
  63  0.497  0.833  0.495-  64 1.42  52 1.42  54 1.42
  64  0.554  0.944  0.497-  63 1.42   9 1.42   7 1.43
  65  0.661  0.829  0.499-  54 1.41  66 1.41  71 1.88
  66  0.719  0.939  0.499-  65 1.41  11 1.44   9 1.44
  67  0.834  0.829  0.500-  56 1.41  68 1.41  71 1.88
  68  0.887  0.939  0.500-  67 1.41  11 1.44   1 1.44
  69  0.549  0.614  0.496-  53 1.35  43 1.36  71 1.98
  70  0.732  0.614  0.497-  55 1.35  44 1.36  71 1.98
  71  0.695  0.724  0.513-  65 1.88  67 1.88  72 1.97  69 1.98  70 1.98
  72  0.680  0.701  0.611-  73 0.97  71 1.97
  73  0.718  0.769  0.633-  72 0.97
 
  Warning from LATTYP: Monoclinic adjustement (A1->A3, A2->A1, A3->A2)!
  Warning from LATTYP: Got some problem with cell dimensions!
  Tried to take original basis but could not verify dimensions!
  LATTYP: Found a simple monoclinic cell.
 ALAT       =    25.4833300900
 B/A-ratio  =     0.7848267840
 C/A-ratio  =     1.5281585944
 COS(beta)  =    -0.9815731980
  
  Lattice vectors:
  
 A1 = (   0.0000420200, -25.4833300900,   0.0000000000)
 A2 = (   0.0000000000,   0.0000000000, -20.0000000000)
 A3 = (   7.4413370210,  38.2249951350,   0.0000000000)


Analysis of symmetry for initial positions (statically):
=====================================================================
 Subroutine PRICEL returns:
 Original cell was already a primitive cell.
 

 Routine SETGRP: Setting up the symmetry group for a 
 simple monoclinic supercell.


 Subroutine GETGRP returns: Found  1 space group operations
 (whereof  1 operations were pure point group operations)
 out of a pool of  4 trial point group operations.


The static configuration has the point symmetry C_1 .


Analysis of symmetry for dynamics (positions and initial velocities):
=====================================================================
 Subroutine PRICEL returns:
 Original cell was already a primitive cell.
 

 Routine SETGRP: Setting up the symmetry group for a 
 simple monoclinic supercell.


 Subroutine GETGRP returns: Found  1 space group operations
 (whereof  1 operations were pure point group operations)
 out of a pool of  4 trial point group operations.


The dynamic configuration has the point symmetry C_1 .


Analysis of constrained symmetry for selective dynamics:
=====================================================================
 Subroutine PRICEL returns:
 Original cell was already a primitive cell.
 

 Routine SETGRP: Setting up the symmetry group for a 
 simple monoclinic supercell.


 Subroutine GETGRP returns: Found  1 space group operations
 (whereof  1 operations were pure point group operations)
 out of a pool of  4 trial point group operations.


The constrained configuration has the point symmetry C_1 .


 Subroutine INISYM returns: Found  1 space group operations
 (whereof  1 operations are pure point group operations),
 and found     1 'primitive' translations

 
 
 KPOINTS: Ti3C2                                   

Automatic generation of k-mesh.
Space group operators:
 irot       det(A)        alpha          n_x          n_y          n_z        tau_x        tau_y        tau_z
    1     1.000000     0.000001     1.000000     0.000000     0.000000     0.000000     0.000000     0.000000
 
 Subroutine IBZKPT returns following result:
 ===========================================
 
 Found      5 irreducible k-points:
 
 Following reciprocal coordinates:
            Coordinates               Weight
  0.000000  0.000000  0.000000      1.000000
  0.333333  0.000000  0.000000      2.000000
  0.000000  0.333333  0.000000      2.000000
  0.333333  0.333333  0.000000      2.000000
 -0.333333  0.333333  0.000000      2.000000
 
 Following cartesian coordinates:
            Coordinates               Weight
  0.000000  0.000000  0.000000      1.000000
  0.022397  0.013080  0.000000      2.000000
  0.000000  0.026161  0.000000      2.000000
  0.022397  0.039241  0.000000      2.000000
 -0.022397  0.013080  0.000000      2.000000
 
 
 Subroutine IBZKPT_HF returns following result:
 ==============================================
 
 Found      9 k-points in 1st BZ
 the following      9 k-points will be used (e.g. in the exchange kernel)
 Following reciprocal coordinates:   # in IRBZ
  0.000000  0.000000  0.000000    0.11111111   1 t-inv F
  0.333333  0.000000  0.000000    0.11111111   2 t-inv F
  0.000000  0.333333  0.000000    0.11111111   3 t-inv F
  0.333333  0.333333  0.000000    0.11111111   4 t-inv F
 -0.333333  0.333333  0.000000    0.11111111   5 t-inv F
 -0.333333 -0.000000 -0.000000    0.11111111   2 t-inv T
 -0.000000 -0.333333 -0.000000    0.11111111   3 t-inv T
 -0.333333 -0.333333 -0.000000    0.11111111   4 t-inv T
  0.333333 -0.333333 -0.000000    0.11111111   5 t-inv T


--------------------------------------------------------------------------------------------------------




 Dimension of arrays:
   k-points           NKPTS =      5   k-points in BZ     NKDIM =      5   number of bands    NBANDS=    256
   number of dos      NEDOS =    301   number of ions     NIONS =     73
   non local maximal  LDIM  =      6   non local SUM 2l+1 LMDIM =     18
   total plane-waves  NPLWV = 691200
   max r-space proj   IRMAX =   2246   max aug-charges    IRDMAX=   5478
   dimension x,y,z NGX =    80 NGY =   80 NGZ =  108
   dimension x,y,z NGXF=   160 NGYF=  160 NGZF=  216
   support grid    NGXF=   160 NGYF=  160 NGZF=  216
   ions per type =              68   2   1   1   1
 NGX,Y,Z   is equivalent  to a cutoff of   8.94,  9.01,  8.98 a.u.
 NGXF,Y,Z  is equivalent  to a cutoff of  17.87, 18.03, 17.95 a.u.


 I would recommend the setting:
   dimension x,y,z NGX =    77 NGY =   77 NGZ =  104
 SYSTEM =  Ti3C2                                   
 POSCAR =  CONTCAR                                 

 Startparameter for this run:
   NWRITE =      2    write-flag & timer
   PREC   = normal    normal or accurate (medium, high low for compatibility)
   ISTART =      0    job   : 0-new  1-cont  2-samecut
   ICHARG =      2    charge: 1-file 2-atom 10-const
   ISPIN  =      1    spin polarized calculation?
   LNONCOLLINEAR =      F non collinear calculations
   LSORBIT =      F    spin-orbit coupling
   INIWAV =      1    electr: 0-lowe 1-rand  2-diag
   LASPH  =      F    aspherical Exc in radial PAW
   METAGGA=      F    non-selfconsistent MetaGGA calc.

 Electronic Relaxation 1
   ENCUT  =  450.0 eV  33.07 Ry    5.75 a.u.  25.74 25.52 34.59*2*pi/ulx,y,z
   ENINI  =  450.0     initial cutoff
   ENAUG  =  644.9 eV  augmentation charge cutoff
   NELM   =     60;   NELMIN=  2; NELMDL= -5     # of ELM steps 
   EDIFF  = 0.1E-03   stopping-criterion for ELM
   LREAL  =      T    real-space projection
   NLSPLINE    = F    spline interpolate recip. space projectors
   LCOMPAT=      F    compatible to vasp.4.4
   GGA_COMPAT  = T    GGA compatible to vasp.4.4-vasp.4.6
   LMAXPAW     = -100 max onsite density
   LMAXMIX     =    2 max onsite mixed and CHGCAR
   VOSKOWN=      0    Vosko Wilk Nusair interpolation
   ROPT   =   -0.00050  -0.00050  -0.00050  -0.00050
   ROPT   =   -0.00050
 Ionic relaxation
   EDIFFG = -.3E-01   stopping-criterion for IOM
   NSW    =    500    number of steps for IOM
   NBLOCK =      1;   KBLOCK =    500    inner block; outer block 
   IBRION =      5    ionic relax: 0-MD 1-quasi-New 2-CG
   NFREE  =      2    steps in history (QN), initial steepest desc. (CG)
   ISIF   =      2    stress and relaxation
   IWAVPR =     11    prediction:  0-non 1-charg 2-wave 3-comb
   ISYM   =      2    0-nonsym 1-usesym 2-fastsym
   LCORR  =      T    Harris-Foulkes like correction to forces

   POTIM  = 0.0500    time-step for ionic-motion
   TEIN   =    0.0    initial temperature
   TEBEG  =    0.0;   TEEND  =   0.0 temperature during run
   SMASS  =  -3.00    Nose mass-parameter (am)
   estimated Nose-frequenzy (Omega)   =  0.10E-29 period in steps =****** mass=  -0.506E-26a.u.
   SCALEE = 1.0000    scale energy and forces
   NPACO  =    256;   APACO  = 16.0  distance and # of slots for P.C.
   PSTRESS=    0.0 pullay stress

  Mass of Ions in am
   POMASS =  12.01 14.00 63.55 16.00  1.00
  Ionic Valenz
   ZVAL   =   4.00  5.00 11.00  6.00  1.00
  Atomic Wigner-Seitz radii
   RWIGS  =  -1.00 -1.00 -1.00 -1.00 -1.00
  virtual crystal weights 
   VCA    =   1.00  1.00  1.00  1.00  1.00
   NELECT =     300.0000    total number of electrons
   NUPDOWN=      -1.0000    fix difference up-down

 DOS related values:
   EMIN   =  10.00;   EMAX   =-10.00  energy-range for DOS
   EFERMI =   0.00
   ISMEAR =     0;   SIGMA  =   0.20  broadening in eV -4-tet -1-fermi 0-gaus

 Electronic relaxation 2 (details)
   IALGO  =     38    algorithm
   LDIAG  =      T    sub-space diagonalisation (order eigenvalues)
   LSUBROT=      F    optimize rotation matrix (better conditioning)
   TURBO    =      0    0=normal 1=particle mesh
   IRESTART =      0    0=no restart 2=restart with 2 vectors
   NREBOOT  =      0    no. of reboots
   NMIN     =      0    reboot dimension
   EREF     =   0.00    reference energy to select bands
   IMIX   =      4    mixing-type and parameters
     AMIX     =   0.40;   BMIX     =  1.00
     AMIX_MAG =   1.60;   BMIX_MAG =  1.00
     AMIN     =   0.10
     WC   =   100.;   INIMIX=   1;  MIXPRE=   1;  MAXMIX= -45

 Intra band minimization:
   WEIMIN = 0.0010     energy-eigenvalue tresh-hold
   EBREAK =  0.98E-07  absolut break condition
   DEPER  =   0.30     relativ break condition  

   TIME   =   0.40     timestep for ELM

  volume/ion in A,a.u.               =      51.95       350.60
  Fermi-wavevector in a.u.,A,eV,Ry     =   0.702751  1.328007  6.719364  0.493859
  Thomas-Fermi vector in A             =   1.787536
 
 Write flags
   LWAVE  =      F    write WAVECAR
   LCHARG =      F    write CHGCAR
   LVTOT  =      F    write LOCPOT, total local potential
   LVHAR  =      F    write LOCPOT, Hartree potential only
   LELF   =      F    write electronic localiz. function (ELF)
   LORBIT =      0    0 simple, 1 ext, 2 COOP (PROOUT)


 Dipole corrections
   LMONO  =      F    monopole corrections only (constant potential shift)
   LDIPOL =      F    correct potential (dipole corrections)
   IDIPOL =      0    1-x, 2-y, 3-z, 4-all directions 
   EPSILON=  1.0000000 bulk dielectric constant

 Exchange correlation treatment:
   GGA     =    --    GGA type
   LEXCH   =     8    internal setting for exchange type
   VOSKOWN=      0    Vosko Wilk Nusair interpolation
   LHFCALC =     F    Hartree Fock is set to
   LHFONE  =     F    Hartree Fock one center treatment
   AEXX    =    0.0000 exact exchange contribution

 Linear response parameters
   LEPSILON=     F    determine dielectric tensor
   LRPA    =     F    only Hartree local field effects (RPA)
   LNABLA  =     F    use nabla operator in PAW spheres
   LVEL    =     F    velocity operator in full k-point grid
   LINTERFAST=   F  fast interpolation
   KINTER  =     0    interpolate to denser k-point grid
   CSHIFT  =0.1000    complex shift for real part using Kramers Kronig
   OMEGAMAX=  -1.0    maximum frequency
   DEG_THRESHOLD= 0.2000000E-02 threshold for treating states as degnerate
   RTIME   =    0.100 relaxation time in fs

 Orbital magnetization related:
   ORBITALMAG=     F  switch on orbital magnetization
   LCHIMAG   =     F  perturbation theory with respect to B field
   DQ        =  0.001000  dq finite difference perturbation B field



--------------------------------------------------------------------------------------------------------


 finite differences
   using selective dynamics as specified on POSCAR
 charge density and potential will be updated during run
 non-spin polarized calculation
 Variant of blocked Davidson
 Davidson routine will perform the subspace rotation
 perform sub-space diagonalisation
    after iterative eigenvector-optimisation
 modified Broyden-mixing scheme, WC =      100.0
 initial mixing is a Kerker type mixing with AMIX =  0.4000 and BMIX =      1.0000
 Hartree-type preconditioning will be used
 using additional bands          106
 real space projection scheme for non local part
 use partial core corrections
 calculate Harris-corrections to forces 
   (improved forces if not selfconsistent)
 use gradient corrections 
 use of overlap-Matrix (Vanderbilt PP)
 Gauss-broadening in eV      SIGMA  =   0.20


--------------------------------------------------------------------------------------------------------


  energy-cutoff  :      450.00
  volume of cell :     3792.63
      direct lattice vectors                 reciprocal lattice vectors
    14.882800102  0.000000000  0.000000000     0.067191657  0.039241450  0.000000000
    -7.441421061 12.741665045  0.000000000     0.000000000  0.078482678  0.000000000
     0.000000000  0.000000000 20.000000000     0.000000000  0.000000000  0.050000000

  length of vectors
    14.882800102 14.755499840 20.000000000     0.077811376  0.078482678  0.050000000


 
 k-points in units of 2pi/SCALE and weight: Ti3C2                                   
   0.00000000  0.00000000  0.00000000       0.111
   0.02239722  0.01308048  0.00000000       0.222
   0.00000000  0.02616089  0.00000000       0.222
   0.02239722  0.03924138  0.00000000       0.222
  -0.02239722  0.01308041  0.00000000       0.222
 
 k-points in reciprocal lattice and weights: Ti3C2                                   
   0.00000000  0.00000000  0.00000000       0.111
   0.33333333  0.00000000  0.00000000       0.222
   0.00000000  0.33333333  0.00000000       0.222
   0.33333333  0.33333333  0.00000000       0.222
  -0.33333333  0.33333333  0.00000000       0.222
 
 position of ions in fractional coordinates (direct lattice) 
   0.99895689  0.99759621  0.49875832
   0.05473336  0.10945759  0.49854468
   0.16776898  0.00101255  0.49758068
   0.22352519  0.11268279  0.49781486
   0.33416966  0.00195322  0.49674917
   0.38996774  0.11355822  0.49732220
   0.49962842  0.00100644  0.49675159
   0.55553578  0.11267555  0.49735607
   0.66501204  0.99760805  0.49804008
   0.72110815  0.10946170  0.49822939
   0.83113558  0.99590809  0.50012195
   0.88680697  0.10723092  0.49937157
   0.99851711  0.16395637  0.49883262
   0.05413942  0.27551411  0.49814840
   0.16654142  0.16650901  0.49802044
   0.22225063  0.27801459  0.49762052
   0.33500677  0.16955043  0.49765993
   0.39114826  0.28166077  0.49774078
   0.50092096  0.16954621  0.49748655
   0.55689445  0.28166226  0.49784152
   0.66634846  0.16650774  0.49780633
   0.72215359  0.27801450  0.49789485
   0.83182775  0.16395654  0.49874221
   0.88776720  0.27551281  0.49825239
   0.99881099  0.33123186  0.49793353
   0.05454490  0.44269108  0.49715844
   0.16521382  0.33180556  0.49754526
   0.22015703  0.44305780  0.49679450
   0.33406038  0.33514450  0.49737720
   0.38896838  0.44678682  0.49680459
   0.50323382  0.34008877  0.49790536
   0.55975743  0.45313720  0.49786196
   0.66747227  0.33514653  0.49779662
   0.72420829  0.44679071  0.49765322
   0.83298170  0.33179938  0.49796029
   0.88929488  0.44305167  0.49760565
   0.99985529  0.49875009  0.49709071
   0.05614526  0.61044872  0.49660124
   0.16529402  0.49875883  0.49657362
   0.22071039  0.61045803  0.49593035
   0.33081899  0.49923223  0.49621498
   0.38440295  0.60988667  0.49530086
   0.50093748  0.50721428  0.49704373
   0.67265423  0.50720912  0.49770512
   0.83480799  0.49922549  0.49742241
   0.89187639  0.60988021  0.49688130
   0.00219259  0.66648769  0.49669096
   0.05740444  0.77795623  0.49663089
   0.16650194  0.66660430  0.49605757
   0.22225316  0.77811037  0.49592303
   0.33069837  0.66649970  0.49533293
   0.38694691  0.77796299  0.49526705
   0.49374022  0.66403540  0.49509927
   0.55145563  0.77637801  0.49561741
   0.83667830  0.66402511  0.49667227
   0.89128191  0.77636453  0.49719867
   0.00195856  0.83306245  0.49705393
   0.05637849  0.94427855  0.49787219
   0.16768122  0.83413168  0.49640997
   0.22323513  0.94585120  0.49681888
   0.33284563  0.83412979  0.49573985
   0.38899746  0.94584789  0.49628030
   0.49749153  0.83307686  0.49546435
   0.55428975  0.94428308  0.49671991
   0.66084031  0.82901836  0.49869970
   0.71925929  0.93948012  0.49941107
   0.83443785  0.82896047  0.49960203
   0.88656754  0.93946119  0.49994777
   0.54881711  0.61398198  0.49592991
   0.73154418  0.61399244  0.49706449
   0.69494215  0.72395088  0.51340252
   0.68041683  0.70105972  0.61076869
   0.71779175  0.76892664  0.63296710
 
 position of ions in cartesian coordinates  (Angst):
   7.44374229 12.71103673  9.97516640
   0.00006557  1.39467195  9.97089364
   2.48933737  0.01290162  9.95161362
   2.48816066  1.43576637  9.95629724
   4.95884558  0.02488722  9.93498346
   4.95877743  1.44692082  9.94644396
   7.42838060  0.01282367  9.93503184
   7.42946168  1.43567414  9.94712136
   2.47361968 12.71118763  9.96080170
   9.91755787  1.39472425  9.96458780
   4.95865321 12.68952732 10.00243906
  12.40022044  1.36630047  9.98743132
  13.64066221  2.08907710  9.97665240
  -1.24447031  3.51050848  9.96296806
   1.23953901  2.12160208  9.96040886
   1.23888805  3.54236875  9.95241044
   3.72414269  2.16035476  9.95319868
   3.72542504  3.58882714  9.95481568
   6.19344184  2.16030104  9.94973096
   6.19218128  3.58884611  9.95683032
   8.67807678  2.12158586  9.95612670
   8.67884466  3.54236759  9.95789696
  11.15985653  2.08907929  9.97484418
  11.16225493  3.51049200  9.96504774
  12.40026861  4.22044544  9.95867052
  -2.48246985  5.64062143  9.94316884
  -0.01026064  4.22775525  9.95090522
  -0.02042654  5.64529412  9.93589008
   2.47780253  4.27029899  9.94754406
   2.46420981  5.69280803  9.93609188
   4.95878467  4.33329719  9.95810714
   4.95877326  5.77372240  9.95723924
   7.43988994  4.27032480  9.95593244
   7.45348942  5.69285764  9.95306442
   9.92804124  4.22767650  9.95920586
   9.93826395  5.64521601  9.95211290
  11.16923697  6.35490664  9.94181416
  -3.70700722  7.77813312  9.93202482
  -1.25143654  6.35501791  9.93147236
  -1.25788655  7.77825172  9.91860692
   1.20851563  6.36104987  9.92429968
   1.18256877  7.77097168  9.90601720
   3.68095740  6.46275447  9.94087460
   6.23662179  6.46268874  9.95410240
   8.70933330  6.36096401  9.94844818
   8.73524263  7.77088932  9.93762600
  -4.92698360  8.49216293  9.93381920
  -4.93476111  9.91245769  9.93261774
  -2.48246824  8.49364870  9.92115132
  -2.48249752  9.91442174  9.91846054
  -0.03798716  8.49231593  9.90665864
  -0.03029673  9.91254382  9.90534106
   2.40686998  8.46091666  9.90198540
   2.42984821  9.89234851  9.91234816
   7.51082555  8.46078547  9.93344540
   7.48751517  9.89217677  9.94397350
  -6.17001966 10.61460271  9.94107870
  -6.18770447 12.03168096  9.95744386
  -3.71155904 10.62822646  9.92819948
  -3.71611317 12.05171916  9.93637758
  -1.25343596 10.62820235  9.91479704
  -1.24908092 12.05167696  9.92560596
   1.20479133 10.61478636  9.90928694
   1.22257557 12.03173867  9.93439816
   3.66607960 10.56307427  9.97399410
   3.71352517 11.97054097  9.98822142
   6.25012777 10.56233666  9.99204050
   6.20368116 11.97029981  9.99895536
   3.59903685  7.82315272  9.91859814
   6.31844949  7.82328602  9.94128978
   4.95546175  9.22433966 10.26805034
   4.90962707  8.93266810 12.21537374
   4.96084424  9.79740572 12.65934202
 


--------------------------------------------------------------------------------------------------------


 k-point  1 :   0.0000 0.0000 0.0000  plane waves:   82161
 k-point  2 :   0.3333 0.0000 0.0000  plane waves:   82186
 k-point  3 :   0.0000 0.3333 0.0000  plane waves:   82212
 k-point  4 :   0.3333 0.3333 0.0000  plane waves:   82228
 k-point  5 :  -0.3333 0.3333 0.0000  plane waves:   82186

 maximum and minimum number of plane-waves per node :     82228    82161

 maximum number of plane-waves:     82228
 maximum index in each direction: 
   IXMAX=   26   IYMAX=   25   IZMAX=   34
   IXMIN=  -26   IYMIN=  -25   IZMIN=  -34

 WARNING: aliasing errors must be expected set NGX to 106 to avoid them
 WARNING: aliasing errors must be expected set NGY to 102 to avoid them
 WARNING: aliasing errors must be expected set NGZ to 138 to avoid them
 aliasing errors are usually negligible using standard VASP settings
 and one can safely disregard these warnings

 serial   3D FFT for wavefunctions
 parallel 3D FFT for charge:
    minimum data exchange during FFTs selected (reduces bandwidth)


 total amount of memory used by VASP on root node    92660. kBytes
========================================================================

   base      :      30000. kBytes
   nonlr-proj:       9962. kBytes
   fftplans  :       4972. kBytes
   grid      :      33320. kBytes
   one-center:       1135. kBytes
   wavefun   :      13271. kBytes
 
     INWAV:  cpu time    0.0001: real time    0.0001
 Broyden mixing: mesh for mixing (old mesh)
   NGX = 51   NGY = 51   NGZ = 69
  (NGX  =160   NGY  =160   NGZ  =216)
  gives a total of 179469 points

 initial charge density was supplied:
 charge density of overlapping atoms calculated
 number of electron     300.0000000 magnetization 
 keeping initial charge density in first step


--------------------------------------------------------------------------------------------------------


 Maximum index for non-local projection operator         2123
 Maximum index for augmentation-charges          181 (set IRDMAX)


--------------------------------------------------------------------------------------------------------


 First call to EWALD:  gamma=   0.114
 Maximum number of real-space cells 3x 3x 2
 Maximum number of reciprocal cells 3x 3x 3

 FEWALD executed in parallel
    FEWALD:  cpu time    0.0027: real time    0.0031


----------------------------------------- Iteration    1(   1)  ---------------------------------------


    POTLOK:  cpu time    0.0875: real time    0.0936
    SETDIJ:  cpu time    0.0052: real time    0.0055
     EDDAV:  cpu time   10.3547: real time   14.1593
       DOS:  cpu time    0.0035: real time    0.0046
    --------------------------------------------
      LOOP:  cpu time   10.4596: real time   14.2754

 eigenvalue-minimisations  :  2560
 total energy-change (2. order) : 0.2400454E+04  (-0.1037271E+05)
 number of electron     300.0000000 magnetization 
 augmentation part      300.0000000 magnetization 

 Free energy of the ion-electron system (eV)
  ---------------------------------------------------
  alpha Z        PSCENC =       121.15636896
  Ewald energy   TEWEN  =     49239.89437560
  -Hartree energ DENC   =    -58572.52976943
  -exchange      EXHF   =         0.00000000
  -V(xc)+E(xc)   XCENC  =      1010.78397727
  PAW double counting   =      9366.25478127    -9515.00570015
  entropy T*S    EENTRO =        -0.59561491
  eigenvalues    EBANDS =     -1620.16376759
  atomic energy  EATOM  =     12370.65920516
  Solvation  Ediel_sol  =         0.00000000
  ---------------------------------------------------
  free energy    TOTEN  =      2400.45385619 eV

  energy without entropy =     2401.04947110  energy(sigma->0) =     2400.75166364


--------------------------------------------------------------------------------------------------------




----------------------------------------- Iteration    1(   2)  ---------------------------------------


     EDDAV:  cpu time   20.1379: real time   21.7971
       DOS:  cpu time    0.0004: real time    0.0004
    --------------------------------------------
      LOOP:  cpu time   20.1404: real time   21.8319

 eigenvalue-minimisations  :  4480
 total energy-change (2. order) :-0.2776770E+04  (-0.2685319E+04)
 number of electron     300.0000000 magnetization 
 augmentation part      300.0000000 magnetization 

 Free energy of the ion-electron system (eV)
  ---------------------------------------------------
  alpha Z        PSCENC =       121.15636896
  Ewald energy   TEWEN  =     49239.89437560
  -Hartree energ DENC   =    -58572.52976943
  -exchange      EXHF   =         0.00000000
  -V(xc)+E(xc)   XCENC  =      1010.78397727
  PAW double counting   =      9366.25478127    -9515.00570015
  entropy T*S    EENTRO =        -0.06816121
  eigenvalues    EBANDS =     -4397.46104580
  atomic energy  EATOM  =     12370.65920516
  Solvation  Ediel_sol  =         0.00000000
  ---------------------------------------------------
  free energy    TOTEN  =      -376.31596832 eV

  energy without entropy =     -376.24780711  energy(sigma->0) =     -376.28188772


--------------------------------------------------------------------------------------------------------




----------------------------------------- Iteration    1(   3)  ---------------------------------------


     EDDAV:  cpu time   11.6614: real time   11.8083
       DOS:  cpu time    0.0004: real time    0.0004
    --------------------------------------------
      LOOP:  cpu time   11.6632: real time   11.8391

 eigenvalue-minimisations  :  3200
 total energy-change (2. order) :-0.3305224E+03  (-0.3291558E+03)
 number of electron     300.0000000 magnetization 
 augmentation part      300.0000000 magnetization 

 Free energy of the ion-electron system (eV)
  ---------------------------------------------------
  alpha Z        PSCENC =       121.15636896
  Ewald energy   TEWEN  =     49239.89437560
  -Hartree energ DENC   =    -58572.52976943
  -exchange      EXHF   =         0.00000000
  -V(xc)+E(xc)   XCENC  =      1010.78397727
  PAW double counting   =      9366.25478127    -9515.00570015
  entropy T*S    EENTRO =        -0.27905138
  eigenvalues    EBANDS =     -4727.77253010
  atomic energy  EATOM  =     12370.65920516
  Solvation  Ediel_sol  =         0.00000000
  ---------------------------------------------------
  free energy    TOTEN  =      -706.83834279 eV

  energy without entropy =     -706.55929141  energy(sigma->0) =     -706.69881710


--------------------------------------------------------------------------------------------------------




----------------------------------------- Iteration    1(   4)  ---------------------------------------


     EDDAV:  cpu time   16.1801: real time   16.3009
       DOS:  cpu time    0.0004: real time    0.0004
    --------------------------------------------
      LOOP:  cpu time   16.1820: real time   16.3232

 eigenvalue-minimisations  :  3840
 total energy-change (2. order) :-0.7031467E+01  (-0.6982521E+01)
 number of electron     300.0000000 magnetization 
 augmentation part      300.0000000 magnetization 

 Free energy of the ion-electron system (eV)
  ---------------------------------------------------
  alpha Z        PSCENC =       121.15636896
  Ewald energy   TEWEN  =     49239.89437560
  -Hartree energ DENC   =    -58572.52976943
  -exchange      EXHF   =         0.00000000
  -V(xc)+E(xc)   XCENC  =      1010.78397727
  PAW double counting   =      9366.25478127    -9515.00570015
  entropy T*S    EENTRO =        -0.27751503
  eigenvalues    EBANDS =     -4734.80553378
  atomic energy  EATOM  =     12370.65920516
  Solvation  Ediel_sol  =         0.00000000
  ---------------------------------------------------
  free energy    TOTEN  =      -713.86981012 eV

  energy without entropy =     -713.59229509  energy(sigma->0) =     -713.73105261


--------------------------------------------------------------------------------------------------------




----------------------------------------- Iteration    1(   5)  ---------------------------------------


     EDDAV:  cpu time   13.2889: real time   13.2905
       DOS:  cpu time    0.0004: real time    0.0004
    CHARGE:  cpu time    0.4363: real time    0.4378
    MIXING:  cpu time    0.0055: real time    0.0062
    --------------------------------------------
      LOOP:  cpu time   13.7328: real time   13.7560

 eigenvalue-minimisations  :  3456
 total energy-change (2. order) :-0.2226634E+00  (-0.2223951E+00)
 number of electron     300.0000010 magnetization 
 augmentation part        9.8160045 magnetization 

 Broyden mixing:
  rms(total) = 0.79300E+01    rms(broyden)= 0.79295E+01
  rms(prec ) = 0.88990E+01
  weight for this iteration     100.00

 Free energy of the ion-electron system (eV)
  ---------------------------------------------------
  alpha Z        PSCENC =       121.15636896
  Ewald energy   TEWEN  =     49239.89437560
  -Hartree energ DENC   =    -58572.52976943
  -exchange      EXHF   =         0.00000000
  -V(xc)+E(xc)   XCENC  =      1010.78397727
  PAW double counting   =      9366.25478127    -9515.00570015
  entropy T*S    EENTRO =        -0.27752293
  eigenvalues    EBANDS =     -4735.02818927
  atomic energy  EATOM  =     12370.65920516
  Solvation  Ediel_sol  =         0.00000000
  ---------------------------------------------------
  free energy    TOTEN  =      -714.09247351 eV

  energy without entropy =     -713.81495058  energy(sigma->0) =     -713.95371204


--------------------------------------------------------------------------------------------------------




----------------------------------------- Iteration    1(   6)  ---------------------------------------


    POTLOK:  cpu time    0.0935: real time    0.1184
    SETDIJ:  cpu time    0.0056: real time    0.0085
     EDDAV:  cpu time   10.3193: real time   10.3520
       DOS:  cpu time    0.0005: real time    0.0005
    CHARGE:  cpu time    0.3817: real time    0.4573
    MIXING:  cpu time    0.0020: real time    0.0020
    --------------------------------------------
      LOOP:  cpu time   10.8042: real time   10.9583

 eigenvalue-minimisations  :  2944
 total energy-change (2. order) :-0.1269772E+03  (-0.5245975E+03)
 number of electron     300.0000039 magnetization 
 augmentation part       16.1028540 magnetization 

 Broyden mixing:
  rms(total) = 0.51671E+01    rms(broyden)= 0.51663E+01
  rms(prec ) = 0.59455E+01
  weight for this iteration     100.00

 eigenvalues of (default mixing * dielectric matrix)
  average eigenvalue GAMMA=   0.6364
  0.6364

 Free energy of the ion-electron system (eV)
  ---------------------------------------------------
  alpha Z        PSCENC =       121.15636896
  Ewald energy   TEWEN  =     49239.89437560
  -Hartree energ DENC   =    -58682.11997411
  -exchange      EXHF   =         0.00000000
  -V(xc)+E(xc)   XCENC  =      1021.04009670
  PAW double counting   =     15554.53600375   -15649.43868473
  entropy T*S    EENTRO =        -0.08401223
  eigenvalues    EBANDS =     -4816.71308550
  atomic energy  EATOM  =     12370.65920516
  Solvation  Ediel_sol  =         0.00000000
  ---------------------------------------------------
  free energy    TOTEN  =      -841.06970639 eV

  energy without entropy =     -840.98569417  energy(sigma->0) =     -841.02770028


--------------------------------------------------------------------------------------------------------




----------------------------------------- Iteration    1(   7)  ---------------------------------------


    POTLOK:  cpu time    0.0883: real time    0.1133
    SETDIJ:  cpu time    0.0103: real time    0.0820
     EDDAV:  cpu time   10.8864: real time   10.9097
       DOS:  cpu time    0.0004: real time    0.0004
    CHARGE:  cpu time    0.4442: real time    0.4448
    MIXING:  cpu time    0.0012: real time    0.0012
    --------------------------------------------
      LOOP:  cpu time   11.4328: real time   11.5672

 eigenvalue-minimisations  :  3072
 total energy-change (2. order) : 0.1389442E+03  (-0.1625838E+02)
 number of electron     300.0000041 magnetization 
 augmentation part       16.1844740 magnetization 

 Broyden mixing:
  rms(total) = 0.35074E+01    rms(broyden)= 0.35074E+01
  rms(prec ) = 0.38994E+01
  weight for this iteration     100.00

 eigenvalues of (default mixing * dielectric matrix)
  average eigenvalue GAMMA=   0.9389
  0.9389  0.9389

 Free energy of the ion-electron system (eV)
  ---------------------------------------------------
  alpha Z        PSCENC =       121.15636896
  Ewald energy   TEWEN  =     49239.89437560
  -Hartree energ DENC   =    -58936.17101286
  -exchange      EXHF   =         0.00000000
  -V(xc)+E(xc)   XCENC  =      1029.15105366
  PAW double counting   =     19093.27857870   -19235.60674937
  entropy T*S    EENTRO =        -0.13478254
  eigenvalues    EBANDS =     -4384.35250320
  atomic energy  EATOM  =     12370.65920516
  Solvation  Ediel_sol  =         0.00000000
  ---------------------------------------------------
  free energy    TOTEN  =      -702.12546588 eV

  energy without entropy =     -701.99068334  energy(sigma->0) =     -702.05807461


--------------------------------------------------------------------------------------------------------




----------------------------------------- Iteration    1(   8)  ---------------------------------------


    POTLOK:  cpu time    0.0857: real time    0.0857
    SETDIJ:  cpu time    0.0037: real time    0.0037
     EDDAV:  cpu time   11.9012: real time   12.0699
       DOS:  cpu time    0.0004: real time    0.0004
    CHARGE:  cpu time    0.4454: real time    0.4458
    MIXING:  cpu time    0.0011: real time    0.0011
    --------------------------------------------
      LOOP:  cpu time   12.4387: real time   12.6235

 eigenvalue-minimisations  :  3200
 total energy-change (2. order) : 0.4684873E+02  (-0.1785960E+02)
 number of electron     300.0000034 magnetization 
 augmentation part       14.7606392 magnetization 

 Broyden mixing:
  rms(total) = 0.11981E+01    rms(broyden)= 0.11976E+01
  rms(prec ) = 0.12821E+01
  weight for this iteration     100.00

 eigenvalues of (default mixing * dielectric matrix)
  average eigenvalue GAMMA=   1.1626
  1.8516  0.8182  0.8182

 Free energy of the ion-electron system (eV)
  ---------------------------------------------------
  alpha Z        PSCENC =       121.15636896
  Ewald energy   TEWEN  =     49239.89437560
  -Hartree energ DENC   =    -59232.23110667
  -exchange      EXHF   =         0.00000000
  -V(xc)+E(xc)   XCENC  =      1039.80162451
  PAW double counting   =     23430.44096153   -23608.52089564
  entropy T*S    EENTRO =        -0.02471446
  eigenvalues    EBANDS =     -4016.45255615
  atomic energy  EATOM  =     12370.65920516
  Solvation  Ediel_sol  =         0.00000000
  ---------------------------------------------------
  free energy    TOTEN  =      -655.27673717 eV

  energy without entropy =     -655.25202270  energy(sigma->0) =     -655.26437993


--------------------------------------------------------------------------------------------------------




----------------------------------------- Iteration    1(   9)  ---------------------------------------


    POTLOK:  cpu time    0.0866: real time    0.0866
    SETDIJ:  cpu time    0.0037: real time    0.0037
     EDDAV:  cpu time   18.9842: real time   19.0122
       DOS:  cpu time    0.0004: real time    0.0004
    CHARGE:  cpu time    0.4515: real time    0.4628
    MIXING:  cpu time    0.0013: real time    0.0013
    --------------------------------------------
      LOOP:  cpu time   19.5290: real time   19.5825

 eigenvalue-minimisations  :  4480
 total energy-change (2. order) :-0.2320258E+02  (-0.8921513E+01)
 number of electron     300.0000011 magnetization 
 augmentation part        8.6590736 magnetization 

 Broyden mixing:
  rms(total) = 0.71129E+01    rms(broyden)= 0.71125E+01
  rms(prec ) = 0.80740E+01
  weight for this iteration     100.00

 eigenvalues of (default mixing * dielectric matrix)
  average eigenvalue GAMMA=   1.0417
  2.2448  0.7001  0.7001  0.5218

 Free energy of the ion-electron system (eV)
  ---------------------------------------------------
  alpha Z        PSCENC =       121.15636896
  Ewald energy   TEWEN  =     49239.89437560
  -Hartree energ DENC   =    -59488.48955602
  -exchange      EXHF   =         0.00000000
  -V(xc)+E(xc)   XCENC  =      1048.73706289
  PAW double counting   =     28863.61080747   -29046.52377320
  entropy T*S    EENTRO =        -0.23798553
  eigenvalues    EBANDS =     -3787.28582677
  atomic energy  EATOM  =     12370.65920516
  Solvation  Ediel_sol  =         0.00000000
  ---------------------------------------------------
  free energy    TOTEN  =      -678.47932144 eV

  energy without entropy =     -678.24133591  energy(sigma->0) =     -678.36032867


--------------------------------------------------------------------------------------------------------




----------------------------------------- Iteration    1(  10)  ---------------------------------------


    POTLOK:  cpu time    0.0871: real time    0.0871
    SETDIJ:  cpu time    0.0037: real time    0.0037
     EDDAV:  cpu time    8.4295: real time    8.4534
       DOS:  cpu time    0.0004: real time    0.0004
    CHARGE:  cpu time    0.4511: real time    0.4630
    MIXING:  cpu time    0.0015: real time    0.0015
    --------------------------------------------
      LOOP:  cpu time    8.9744: real time    9.0273

 eigenvalue-minimisations  :  2560
 total energy-change (2. order) : 0.1703696E+02  (-0.1010480E+03)
 number of electron     300.0000034 magnetization 
 augmentation part       15.4860376 magnetization 

 Broyden mixing:
  rms(total) = 0.16459E+01    rms(broyden)= 0.16450E+01
  rms(prec ) = 0.18332E+01
  weight for this iteration     100.00

 eigenvalues of (default mixing * dielectric matrix)
  average eigenvalue GAMMA=   1.0239
  2.3117  0.9323  0.7120  0.7120  0.4515

 Free energy of the ion-electron system (eV)
  ---------------------------------------------------
  alpha Z        PSCENC =       121.15636896
  Ewald energy   TEWEN  =     49239.89437560
  -Hartree energ DENC   =    -59433.49568114
  -exchange      EXHF   =         0.00000000
  -V(xc)+E(xc)   XCENC  =      1047.68618069
  PAW double counting   =     30165.55802424   -30336.06992549
  entropy T*S    EENTRO =        -0.08910414
  eigenvalues    EBANDS =     -3836.74180732
  atomic energy  EATOM  =     12370.65920516
  Solvation  Ediel_sol  =         0.00000000
  ---------------------------------------------------
  free energy    TOTEN  =      -661.44236343 eV

  energy without entropy =     -661.35325929  energy(sigma->0) =     -661.39781136


--------------------------------------------------------------------------------------------------------




----------------------------------------- Iteration    1(  11)  ---------------------------------------


    POTLOK:  cpu time    0.0862: real time    0.0864
    SETDIJ:  cpu time    0.0037: real time    0.0037
     EDDAV:  cpu time   16.0521: real time   16.1012
       DOS:  cpu time    0.0004: real time    0.0004
    CHARGE:  cpu time    0.4291: real time    0.4297
    MIXING:  cpu time    0.0014: real time    0.0014
    --------------------------------------------
      LOOP:  cpu time   16.5739: real time   16.6386

 eigenvalue-minimisations  :  3840
 total energy-change (2. order) :-0.9138463E+00  (-0.3525694E+00)
 number of electron     300.0000034 magnetization 
 augmentation part       15.4858010 magnetization 

 Broyden mixing:
  rms(total) = 0.16454E+01    rms(broyden)= 0.16454E+01
  rms(prec ) = 0.18767E+01
  weight for this iteration     100.00

 eigenvalues of (default mixing * dielectric matrix)
  average eigenvalue GAMMA=   1.0374
  2.2987  1.5022  0.6642  0.6642  0.6726  0.4226

 Free energy of the ion-electron system (eV)
  ---------------------------------------------------
  alpha Z        PSCENC =       121.15636896
  Ewald energy   TEWEN  =     49239.89437560
  -Hartree energ DENC   =    -59469.14214291
  -exchange      EXHF   =         0.00000000
  -V(xc)+E(xc)   XCENC  =      1048.45655301
  PAW double counting   =     30919.30784873   -31085.66982618
  entropy T*S    EENTRO =        -0.20894155
  eigenvalues    EBANDS =     -3806.80965054
  atomic energy  EATOM  =     12370.65920516
  Solvation  Ediel_sol  =         0.00000000
  ---------------------------------------------------
  free energy    TOTEN  =      -662.35620971 eV

  energy without entropy =     -662.14726816  energy(sigma->0) =     -662.25173894


--------------------------------------------------------------------------------------------------------




----------------------------------------- Iteration    1(  12)  ---------------------------------------


    POTLOK:  cpu time    0.0888: real time    0.0888
    SETDIJ:  cpu time    0.0037: real time    0.0037
     EDDAV:  cpu time   14.0711: real time   14.0809
       DOS:  cpu time    0.0004: real time    0.0004
    CHARGE:  cpu time    0.4280: real time    0.4292
    MIXING:  cpu time    0.0014: real time    0.0014
    --------------------------------------------
      LOOP:  cpu time   14.5946: real time   14.6197

 eigenvalue-minimisations  :  3584
 total energy-change (2. order) : 0.7573417E+01  (-0.1208846E+01)
 number of electron     300.0000032 magnetization 
 augmentation part       14.8333132 magnetization 

 Broyden mixing:
  rms(total) = 0.61274E+00    rms(broyden)= 0.61232E+00
  rms(prec ) = 0.70390E+00
  weight for this iteration     100.00

 eigenvalues of (default mixing * dielectric matrix)
  average eigenvalue GAMMA=   1.0381
  2.3104  1.8193  0.6297  0.6297  0.7542  0.7542  0.3691

 Free energy of the ion-electron system (eV)
  ---------------------------------------------------
  alpha Z        PSCENC =       121.15636896
  Ewald energy   TEWEN  =     49239.89437560
  -Hartree energ DENC   =    -59533.83461165
  -exchange      EXHF   =         0.00000000
  -V(xc)+E(xc)   XCENC  =      1049.86070781
  PAW double counting   =     31261.04307393   -31430.61846576
  entropy T*S    EENTRO =        -0.02496145
  eigenvalues    EBANDS =     -3732.91848495
  atomic energy  EATOM  =     12370.65920516
  Solvation  Ediel_sol  =         0.00000000
  ---------------------------------------------------
  free energy    TOTEN  =      -654.78279233 eV

  energy without entropy =     -654.75783089  energy(sigma->0) =     -654.77031161


--------------------------------------------------------------------------------------------------------




----------------------------------------- Iteration    1(  13)  ---------------------------------------


    POTLOK:  cpu time    0.0865: real time    0.0865
    SETDIJ:  cpu time    0.0037: real time    0.0037
     EDDAV:  cpu time   17.7699: real time   17.7772
       DOS:  cpu time    0.0004: real time    0.0004
    CHARGE:  cpu time    0.4286: real time    0.4289
    MIXING:  cpu time    0.0015: real time    0.0015
    --------------------------------------------
      LOOP:  cpu time   18.2918: real time   18.3135

 eigenvalue-minimisations  :  4224
 total energy-change (2. order) :-0.1134771E-01  (-0.3781583E-01)
 number of electron     300.0000032 magnetization 
 augmentation part       14.8879531 magnetization 

 Broyden mixing:
  rms(total) = 0.63784E+00    rms(broyden)= 0.63784E+00
  rms(prec ) = 0.72809E+00
  weight for this iteration     100.00

 eigenvalues of (default mixing * dielectric matrix)
  average eigenvalue GAMMA=   1.0653
  2.1797  2.1797  0.6461  0.6461  0.9397  0.9397  0.5985  0.3928

 Free energy of the ion-electron system (eV)
  ---------------------------------------------------
  alpha Z        PSCENC =       121.15636896
  Ewald energy   TEWEN  =     49239.89437560
  -Hartree energ DENC   =    -59555.93324512
  -exchange      EXHF   =         0.00000000
  -V(xc)+E(xc)   XCENC  =      1049.96665100
  PAW double counting   =     31447.48857105   -31613.65026376
  entropy T*S    EENTRO =        -0.02642571
  eigenvalues    EBANDS =     -3714.34937722
  atomic energy  EATOM  =     12370.65920516
  Solvation  Ediel_sol  =         0.00000000
  ---------------------------------------------------
  free energy    TOTEN  =      -654.79414005 eV

  energy without entropy =     -654.76771433  energy(sigma->0) =     -654.78092719


--------------------------------------------------------------------------------------------------------




----------------------------------------- Iteration    1(  14)  ---------------------------------------


    POTLOK:  cpu time    0.0843: real time    0.0843
    SETDIJ:  cpu time    0.0036: real time    0.0036
     EDDAV:  cpu time   17.1093: real time   17.1136
       DOS:  cpu time    0.0004: real time    0.0004
    CHARGE:  cpu time    0.4270: real time    0.4272
    MIXING:  cpu time    0.0017: real time    0.0017
    --------------------------------------------
      LOOP:  cpu time   17.6275: real time   17.6469

 eigenvalue-minimisations  :  4096
 total energy-change (2. order) : 0.8914669E-01  (-0.7711642E-02)
 number of electron     300.0000032 magnetization 
 augmentation part       14.9007936 magnetization 

 Broyden mixing:
  rms(total) = 0.61852E+00    rms(broyden)= 0.61851E+00
  rms(prec ) = 0.70643E+00
  weight for this iteration     100.00

 eigenvalues of (default mixing * dielectric matrix)
  average eigenvalue GAMMA=   1.1430
  2.3476  2.3476  1.7707  0.6460  0.6460  0.7665  0.7665  0.6114  0.3847

 Free energy of the ion-electron system (eV)
  ---------------------------------------------------
  alpha Z        PSCENC =       121.15636896
  Ewald energy   TEWEN  =     49239.89437560
  -Hartree energ DENC   =    -59579.63969209
  -exchange      EXHF   =         0.00000000
  -V(xc)+E(xc)   XCENC  =      1050.12242779
  PAW double counting   =     31475.61717886   -31639.52693418
  entropy T*S    EENTRO =        -0.02953597
  eigenvalues    EBANDS =     -3692.95838749
  atomic energy  EATOM  =     12370.65920516
  Solvation  Ediel_sol  =         0.00000000
  ---------------------------------------------------
  free energy    TOTEN  =      -654.70499335 eV

  energy without entropy =     -654.67545738  energy(sigma->0) =     -654.69022537


--------------------------------------------------------------------------------------------------------




----------------------------------------- Iteration    1(  15)  ---------------------------------------


    POTLOK:  cpu time    0.0857: real time    0.0857
    SETDIJ:  cpu time    0.0036: real time    0.0036
     EDDAV:  cpu time   14.4232: real time   14.4256
       DOS:  cpu time    0.0004: real time    0.0004
    CHARGE:  cpu time    0.4277: real time    0.4290
    MIXING:  cpu time    0.0021: real time    0.0021
    --------------------------------------------
      LOOP:  cpu time   14.9438: real time   14.9676

 eigenvalue-minimisations  :  3584
 total energy-change (2. order) : 0.6843041E+00  (-0.5726548E-01)
 number of electron     300.0000031 magnetization 
 augmentation part       14.7065105 magnetization 

 Broyden mixing:
  rms(total) = 0.34852E+00    rms(broyden)= 0.34842E+00
  rms(prec ) = 0.40700E+00
  weight for this iteration     100.00

 eigenvalues of (default mixing * dielectric matrix)
  average eigenvalue GAMMA=   1.0693
  2.3530  2.3530  1.9162  0.6451  0.6451  0.6802  0.6802  0.6857  0.3758  0.3586

 Free energy of the ion-electron system (eV)
  ---------------------------------------------------
  alpha Z        PSCENC =       121.15636896
  Ewald energy   TEWEN  =     49239.89437560
  -Hartree energ DENC   =    -59622.33565126
  -exchange      EXHF   =         0.00000000
  -V(xc)+E(xc)   XCENC  =      1050.68624428
  PAW double counting   =     31465.53921824   -31628.31642843
  entropy T*S    EENTRO =        -0.02511570
  eigenvalues    EBANDS =     -3651.27890614
  atomic energy  EATOM  =     12370.65920516
  Solvation  Ediel_sol  =         0.00000000
  ---------------------------------------------------
  free energy    TOTEN  =      -654.02068929 eV

  energy without entropy =     -653.99557359  energy(sigma->0) =     -654.00813144


--------------------------------------------------------------------------------------------------------




----------------------------------------- Iteration    1(  16)  ---------------------------------------


    POTLOK:  cpu time    0.0869: real time    0.0869
    SETDIJ:  cpu time    0.0036: real time    0.0036
     EDDAV:  cpu time   14.5139: real time   14.5179
       DOS:  cpu time    0.0004: real time    0.0004
    CHARGE:  cpu time    0.4280: real time    0.4289
    MIXING:  cpu time    0.0017: real time    0.0017
    --------------------------------------------
      LOOP:  cpu time   15.0357: real time   15.0550

 eigenvalue-minimisations  :  3712
 total energy-change (2. order) : 0.8888498E-01  (-0.4207966E-02)
 number of electron     300.0000031 magnetization 
 augmentation part       14.6892688 magnetization 

 Broyden mixing:
  rms(total) = 0.31652E+00    rms(broyden)= 0.31651E+00
  rms(prec ) = 0.36762E+00
  weight for this iteration     100.00

 eigenvalues of (default mixing * dielectric matrix)
  average eigenvalue GAMMA=   1.2152
  2.5584  2.5584  2.0501  1.1629  1.1629  0.6399  0.6399  0.8101  0.8101  0.5892
  0.3853

 Free energy of the ion-electron system (eV)
  ---------------------------------------------------
  alpha Z        PSCENC =       121.15636896
  Ewald energy   TEWEN  =     49239.89437560
  -Hartree energ DENC   =    -59640.90659732
  -exchange      EXHF   =         0.00000000
  -V(xc)+E(xc)   XCENC  =      1050.84562880
  PAW double counting   =     31444.74972325   -31606.65992988
  entropy T*S    EENTRO =        -0.02518550
  eigenvalues    EBANDS =     -3633.64539339
  atomic energy  EATOM  =     12370.65920516
  Solvation  Ediel_sol  =         0.00000000
  ---------------------------------------------------
  free energy    TOTEN  =      -653.93180431 eV

  energy without entropy =     -653.90661881  energy(sigma->0) =     -653.91921156


--------------------------------------------------------------------------------------------------------




----------------------------------------- Iteration    1(  17)  ---------------------------------------


    POTLOK:  cpu time    0.0860: real time    0.0860
    SETDIJ:  cpu time    0.0036: real time    0.0036
     EDDAV:  cpu time   15.8719: real time   15.8798
       DOS:  cpu time    0.0004: real time    0.0004
    CHARGE:  cpu time    0.4272: real time    0.4272
    MIXING:  cpu time    0.0018: real time    0.0018
    --------------------------------------------
      LOOP:  cpu time   16.3921: real time   16.4145

 eigenvalue-minimisations  :  3840
 total energy-change (2. order) : 0.2262230E+00  (-0.4484229E-01)
 number of electron     300.0000029 magnetization 
 augmentation part       14.5098030 magnetization 

 Broyden mixing:
  rms(total) = 0.10055E+00    rms(broyden)= 0.10020E+00
  rms(prec ) = 0.12293E+00
  weight for this iteration     100.00

 eigenvalues of (default mixing * dielectric matrix)
  average eigenvalue GAMMA=   1.2265
  2.4784  2.4784  2.0442  1.8310  1.5362  0.6410  0.6410  0.8018  0.8018  0.6073
  0.3848  0.4721

 Free energy of the ion-electron system (eV)
  ---------------------------------------------------
  alpha Z        PSCENC =       121.15636896
  Ewald energy   TEWEN  =     49239.89437560
  -Hartree energ DENC   =    -59673.94883381
  -exchange      EXHF   =         0.00000000
  -V(xc)+E(xc)   XCENC  =      1051.17628251
  PAW double counting   =     31426.97500911   -31588.05531199
  entropy T*S    EENTRO =        -0.02771666
  eigenvalues    EBANDS =     -3601.53496019
  atomic energy  EATOM  =     12370.65920516
  Solvation  Ediel_sol  =         0.00000000
  ---------------------------------------------------
  free energy    TOTEN  =      -653.70558130 eV

  energy without entropy =     -653.67786464  energy(sigma->0) =     -653.69172297


--------------------------------------------------------------------------------------------------------




----------------------------------------- Iteration    1(  18)  ---------------------------------------


    POTLOK:  cpu time    0.0878: real time    0.0879
    SETDIJ:  cpu time    0.0037: real time    0.0037
     EDDAV:  cpu time   14.4255: real time   14.4285
       DOS:  cpu time    0.0004: real time    0.0004
[...]
      1.239539  2.121602  9.960409            0           0           0  
      1.238888  3.542369  9.952410            0           0           0  
      3.724143  2.160355  9.953199            0           0           0  
      3.725425  3.588827  9.954816            0           0           0  
      6.193442  2.160301  9.949731            0           0           0  
      6.192181  3.588846  9.956830            0           0           0  
      8.678077  2.121586  9.956127            0           0           0  
      8.678845  3.542368  9.957897            0           0           0  
     11.159857  2.089079  9.974844            0           0           0  
     11.162255  3.510492  9.965048            0           0           0  
     12.400269  4.220445  9.958671            0           0           0  
     -2.482470  5.640621  9.943169            0           0           0  
     -0.010261  4.227755  9.950905            0           0           0  
     -0.020427  5.645294  9.935890            0           0           0  
      2.477803  4.270299  9.947544            0           0           0  
      2.464210  5.692808  9.936092            0           0           0  
      4.958785  4.333297  9.958107            0           0           0  
      4.958773  5.773722  9.957239            0           0           0  
      7.439890  4.270325  9.955932            0           0           0  
      7.453489  5.692858  9.953064            0           0           0  
      9.928041  4.227676  9.959206            0           0           0  
      9.938264  5.645216  9.952113            0           0           0  
     11.169237  6.354907  9.941814            0           0           0  
     -3.707007  7.778133  9.932025            0           0           0  
     -1.251437  6.355018  9.931472            0           0           0  
     -1.257887  7.778252  9.918607            0           0           0  
      1.208516  6.361050  9.924300            0           0           0  
      1.182569  7.770972  9.906017            0           0           0  
      3.680957  6.462754  9.940875            0           0           0  
      6.236622  6.462689  9.954102            0           0           0  
      8.709333  6.360964  9.948448            0           0           0  
      8.735243  7.770889  9.937626            0           0           0  
     -4.926984  8.492163  9.933819            0           0           0  
     -4.934761  9.912458  9.932618            0           0           0  
     -2.482468  8.493649  9.921151            0           0           0  
     -2.482498  9.914422  9.918461            0           0           0  
     -0.037987  8.492316  9.906659            0           0           0  
     -0.030297  9.912544  9.905341            0           0           0  
      2.406870  8.460917  9.901985            0           0           0  
      2.429848  9.892349  9.912348            0           0           0  
      7.510826  8.460785  9.933445            0           0           0  
      7.487515  9.892177  9.943973            0           0           0  
     -6.170020 10.614603  9.941079            0           0           0  
     -6.187704 12.031681  9.957444            0           0           0  
     -3.711559 10.628226  9.928199            0           0           0  
     -3.716113 12.051719  9.936378            0           0           0  
     -1.253436 10.628202  9.914797            0           0           0  
     -1.249081 12.051677  9.925606            0           0           0  
      1.204791 10.614786  9.909287            0           0           0  
      1.222576 12.031739  9.934398            0           0           0  
      3.666080 10.563074  9.973994            0           0           0  
      3.713525 11.970541  9.988221            0           0           0  
      6.250128 10.562337  9.992041            0           0           0  
      6.203681 11.970300  9.998955            0           0           0  
      3.599037  7.823153  9.918598            0           0           0  
      6.318449  7.823286  9.941290            0           0           0  
      4.955462  9.224340 10.268050            0           0           0  
      4.909627  8.932668 12.215374     0.109726   -0.044740   -0.043340  
      4.960844  9.797406 12.659342    -0.990053    0.056271   -0.026612  
 
   5 f  =    2.977950 THz    18.711013 2PiTHz   99.333723 cm-1    12.315816 meV
             X         Y         Z           dx          dy          dz
      7.443742 12.711037  9.975166            0           0           0  
      0.000066  1.394672  9.970894            0           0           0  
      2.489337  0.012902  9.951614            0           0           0  
      2.488161  1.435766  9.956297            0           0           0  
      4.958846  0.024887  9.934983            0           0           0  
      4.958777  1.446921  9.946444            0           0           0  
      7.428381  0.012824  9.935032            0           0           0  
      7.429462  1.435674  9.947121            0           0           0  
      2.473620 12.711188  9.960802            0           0           0  
      9.917558  1.394724  9.964588            0           0           0  
      4.958653 12.689527 10.002439            0           0           0  
     12.400220  1.366300  9.987431            0           0           0  
     13.640662  2.089077  9.976652            0           0           0  
     -1.244470  3.510508  9.962968            0           0           0  
      1.239539  2.121602  9.960409            0           0           0  
      1.238888  3.542369  9.952410            0           0           0  
      3.724143  2.160355  9.953199            0           0           0  
      3.725425  3.588827  9.954816            0           0           0  
      6.193442  2.160301  9.949731            0           0           0  
      6.192181  3.588846  9.956830            0           0           0  
      8.678077  2.121586  9.956127            0           0           0  
      8.678845  3.542368  9.957897            0           0           0  
     11.159857  2.089079  9.974844            0           0           0  
     11.162255  3.510492  9.965048            0           0           0  
     12.400269  4.220445  9.958671            0           0           0  
     -2.482470  5.640621  9.943169            0           0           0  
     -0.010261  4.227755  9.950905            0           0           0  
     -0.020427  5.645294  9.935890            0           0           0  
      2.477803  4.270299  9.947544            0           0           0  
      2.464210  5.692808  9.936092            0           0           0  
      4.958785  4.333297  9.958107            0           0           0  
      4.958773  5.773722  9.957239            0           0           0  
      7.439890  4.270325  9.955932            0           0           0  
      7.453489  5.692858  9.953064            0           0           0  
      9.928041  4.227676  9.959206            0           0           0  
      9.938264  5.645216  9.952113            0           0           0  
     11.169237  6.354907  9.941814            0           0           0  
     -3.707007  7.778133  9.932025            0           0           0  
     -1.251437  6.355018  9.931472            0           0           0  
     -1.257887  7.778252  9.918607            0           0           0  
      1.208516  6.361050  9.924300            0           0           0  
      1.182569  7.770972  9.906017            0           0           0  
      3.680957  6.462754  9.940875            0           0           0  
      6.236622  6.462689  9.954102            0           0           0  
      8.709333  6.360964  9.948448            0           0           0  
      8.735243  7.770889  9.937626            0           0           0  
     -4.926984  8.492163  9.933819            0           0           0  
     -4.934761  9.912458  9.932618            0           0           0  
     -2.482468  8.493649  9.921151            0           0           0  
     -2.482498  9.914422  9.918461            0           0           0  
     -0.037987  8.492316  9.906659            0           0           0  
     -0.030297  9.912544  9.905341            0           0           0  
      2.406870  8.460917  9.901985            0           0           0  
      2.429848  9.892349  9.912348            0           0           0  
      7.510826  8.460785  9.933445            0           0           0  
      7.487515  9.892177  9.943973            0           0           0  
     -6.170020 10.614603  9.941079            0           0           0  
     -6.187704 12.031681  9.957444            0           0           0  
     -3.711559 10.628226  9.928199            0           0           0  
     -3.716113 12.051719  9.936378            0           0           0  
     -1.253436 10.628202  9.914797            0           0           0  
     -1.249081 12.051677  9.925606            0           0           0  
      1.204791 10.614786  9.909287            0           0           0  
      1.222576 12.031739  9.934398            0           0           0  
      3.666080 10.563074  9.973994            0           0           0  
      3.713525 11.970541  9.988221            0           0           0  
      6.250128 10.562337  9.992041            0           0           0  
      6.203681 11.970300  9.998955            0           0           0  
      3.599037  7.823153  9.918598            0           0           0  
      6.318449  7.823286  9.941290            0           0           0  
      4.955462  9.224340 10.268050            0           0           0  
      4.909627  8.932668 12.215374     0.153015    0.930163    0.125923  
      4.960844  9.797406 12.659342    -0.011398    0.296149   -0.087706  
 
   6 f  =    2.511290 THz    15.778901 2PiTHz   83.767619 cm-1    10.385865 meV
             X         Y         Z           dx          dy          dz
      7.443742 12.711037  9.975166            0           0           0  
      0.000066  1.394672  9.970894            0           0           0  
      2.489337  0.012902  9.951614            0           0           0  
      2.488161  1.435766  9.956297            0           0           0  
      4.958846  0.024887  9.934983            0           0           0  
      4.958777  1.446921  9.946444            0           0           0  
      7.428381  0.012824  9.935032            0           0           0  
      7.429462  1.435674  9.947121            0           0           0  
      2.473620 12.711188  9.960802            0           0           0  
      9.917558  1.394724  9.964588            0           0           0  
      4.958653 12.689527 10.002439            0           0           0  
     12.400220  1.366300  9.987431            0           0           0  
     13.640662  2.089077  9.976652            0           0           0  
     -1.244470  3.510508  9.962968            0           0           0  
      1.239539  2.121602  9.960409            0           0           0  
      1.238888  3.542369  9.952410            0           0           0  
      3.724143  2.160355  9.953199            0           0           0  
      3.725425  3.588827  9.954816            0           0           0  
      6.193442  2.160301  9.949731            0           0           0  
      6.192181  3.588846  9.956830            0           0           0  
      8.678077  2.121586  9.956127            0           0           0  
      8.678845  3.542368  9.957897            0           0           0  
     11.159857  2.089079  9.974844            0           0           0  
     11.162255  3.510492  9.965048            0           0           0  
     12.400269  4.220445  9.958671            0           0           0  
     -2.482470  5.640621  9.943169            0           0           0  
     -0.010261  4.227755  9.950905            0           0           0  
     -0.020427  5.645294  9.935890            0           0           0  
      2.477803  4.270299  9.947544            0           0           0  
      2.464210  5.692808  9.936092            0           0           0  
      4.958785  4.333297  9.958107            0           0           0  
      4.958773  5.773722  9.957239            0           0           0  
      7.439890  4.270325  9.955932            0           0           0  
      7.453489  5.692858  9.953064            0           0           0  
      9.928041  4.227676  9.959206            0           0           0  
      9.938264  5.645216  9.952113            0           0           0  
     11.169237  6.354907  9.941814            0           0           0  
     -3.707007  7.778133  9.932025            0           0           0  
     -1.251437  6.355018  9.931472            0           0           0  
     -1.257887  7.778252  9.918607            0           0           0  
      1.208516  6.361050  9.924300            0           0           0  
      1.182569  7.770972  9.906017            0           0           0  
      3.680957  6.462754  9.940875            0           0           0  
      6.236622  6.462689  9.954102            0           0           0  
      8.709333  6.360964  9.948448            0           0           0  
      8.735243  7.770889  9.937626            0           0           0  
     -4.926984  8.492163  9.933819            0           0           0  
     -4.934761  9.912458  9.932618            0           0           0  
     -2.482468  8.493649  9.921151            0           0           0  
     -2.482498  9.914422  9.918461            0           0           0  
     -0.037987  8.492316  9.906659            0           0           0  
     -0.030297  9.912544  9.905341            0           0           0  
      2.406870  8.460917  9.901985            0           0           0  
      2.429848  9.892349  9.912348            0           0           0  
      7.510826  8.460785  9.933445            0           0           0  
      7.487515  9.892177  9.943973            0           0           0  
     -6.170020 10.614603  9.941079            0           0           0  
     -6.187704 12.031681  9.957444            0           0           0  
     -3.711559 10.628226  9.928199            0           0           0  
     -3.716113 12.051719  9.936378            0           0           0  
     -1.253436 10.628202  9.914797            0           0           0  
     -1.249081 12.051677  9.925606            0           0           0  
      1.204791 10.614786  9.909287            0           0           0  
      1.222576 12.031739  9.934398            0           0           0  
      3.666080 10.563074  9.973994            0           0           0  
      3.713525 11.970541  9.988221            0           0           0  
      6.250128 10.562337  9.992041            0           0           0  
      6.203681 11.970300  9.998955            0           0           0  
      3.599037  7.823153  9.918598            0           0           0  
      6.318449  7.823286  9.941290            0           0           0  
      4.955462  9.224340 10.268050            0           0           0  
      4.909627  8.932668 12.215374     0.981693   -0.149114    0.004210  
      4.960844  9.797406 12.659342     0.113199   -0.033617    0.009088  
 
 Finite differences POTIM=  5.000000000000000E-002
  Warning from LATTYP: Monoclinic adjustement (A1->A3, A2->A1, A3->A2)!
  Warning from LATTYP: Got some problem with cell dimensions!
  Tried to take original basis but could not verify dimensions!
  LATTYP: Found a simple monoclinic cell.
 ALAT       =    25.4833300900
 B/A-ratio  =     0.7848267840
 C/A-ratio  =     1.5281585944
 COS(beta)  =    -0.9815731980
  
  Lattice vectors:
  
 A1 = (   0.0000420200, -25.4833300900,   0.0000000000)
 A2 = (   0.0000000000,   0.0000000000, -20.0000000000)
 A3 = (   7.4413370210,  38.2249951350,   0.0000000000)


Analysis of symmetry for initial positions (statically):
=====================================================================
 Subroutine PRICEL returns:
 Original cell was already a primitive cell.
 

 Routine SETGRP: Setting up the symmetry group for a 
 simple monoclinic supercell.


 Subroutine GETGRP returns: Found  1 space group operations
 (whereof  1 operations were pure point group operations)
 out of a pool of  4 trial point group operations.


The static configuration has the point symmetry C_1 .


Analysis of symmetry for dynamics (positions and initial velocities):
=====================================================================
 Subroutine PRICEL returns:
 Original cell was already a primitive cell.
 

 Routine SETGRP: Setting up the symmetry group for a 
 simple monoclinic supercell.


 Subroutine GETGRP returns: Found  1 space group operations
 (whereof  1 operations were pure point group operations)
 out of a pool of  4 trial point group operations.


The dynamic configuration has the point symmetry C_1 .


Analysis of constrained symmetry for selective dynamics:
=====================================================================
 Subroutine PRICEL returns:
 Original cell was already a primitive cell.
 

 Routine SETGRP: Setting up the symmetry group for a 
 simple monoclinic supercell.


 Subroutine GETGRP returns: Found  1 space group operations
 (whereof  1 operations were pure point group operations)
 out of a pool of  4 trial point group operations.


The constrained configuration has the point symmetry C_1 .


 Subroutine INISYM returns: Found  1 space group operations
 (whereof  1 operations are pure point group operations),
 and found     1 'primitive' translations

 
 KPOINTS: Ti3C2                                   

Automatic generation of k-mesh.
Space group operators:
 irot       det(A)        alpha          n_x          n_y          n_z        tau_x        tau_y        tau_z
    1     1.000000     0.000001     1.000000     0.000000     0.000000     0.000000     0.000000     0.000000
 
 Subroutine IBZKPT returns following result:
 ===========================================
 
 Found      5 irreducible k-points:
 
 Following reciprocal coordinates:
            Coordinates               Weight
  0.000000  0.000000  0.000000      1.000000
  0.333333  0.000000  0.000000      2.000000
  0.000000  0.333333  0.000000      2.000000
  0.333333  0.333333  0.000000      2.000000
 -0.333333  0.333333  0.000000      2.000000
 
 Following cartesian coordinates:
            Coordinates               Weight
  0.000000  0.000000  0.000000      1.000000
  0.022397  0.013080  0.000000      2.000000
  0.000000  0.026161  0.000000      2.000000
  0.022397  0.039241  0.000000      2.000000
 -0.022397  0.013080  0.000000      2.000000
 
     LOOP+:  cpu time   95.3622: real time   95.5740
    4ORBIT:  cpu time    0.0000: real time    0.0000

 total amount of memory used by VASP on root node    92660. kBytes
========================================================================

   base      :      30000. kBytes
   nonlr-proj:       9962. kBytes
   fftplans  :       4972. kBytes
   grid      :      33320. kBytes
   one-center:       1135. kBytes
   wavefun   :      13271. kBytes
 
  
  
 General timing and accounting informations for this job:
 ========================================================
  
                  Total CPU time used (sec):     1504.947
                            User time (sec):     1360.079
                          System time (sec):      144.868
                         Elapsed time (sec):     1527.204
  
                   Maximum memory used (kb):      478432.
                   Average memory used (kb):           0.
  
                          Minor page faults:       360352
                          Major page faults:           11
                 Voluntary context switches:        66274
