   8   8   0   0
  0.9237446E+01  0.3028512E-09  0.4483051E-09  0.5443008E-09  0.5000000E-15
  1.000000000000000E-004
  CAR 
 unknown system                          
     36.26650128    -29.46067184  301     -4.45695973      1.00000000
    -29.461  0.0000E+00  0.0000E+00
    -29.242  0.0000E+00  0.0000E+00
    -29.022  0.0000E+00  0.0000E+00
    -28.803  0.0000E+00  0.0000E+00
    -28.584  0.0000E+00  0.0000E+00
    -28.365  0.0000E+00  0.0000E+00
    -28.146  0.0000E+00  0.0000E+00
    -27.927  0.0000E+00  0.0000E+00
    -27.708  0.0000E+00  0.0000E+00
    -27.489  0.0000E+00  0.0000E+00
    -27.270  0.0000E+00  0.0000E+00
    -27.051  0.4799E-17  0.1051E-17
    -26.832  0.9732E-08  0.2132E-08
    -26.612  0.3426E-02  0.7506E-03
    -26.393  0.8462E+00  0.1861E+00
    -26.174  0.5367E+01  0.1362E+01
    -25.955  0.1110E+02  0.3793E+01
    -25.736  0.1424E+02  0.6912E+01
    -25.517  0.4899E+01  0.7985E+01
    -25.298  0.6773E-01  0.8000E+01
    -25.079  0.9796E-06  0.8000E+01
    -24.860  0.2478E-14  0.8000E+01
    -24.641  0.0000E+00  0.8000E+01
    -24.422  0.0000E+00  0.8000E+01
    -24.202  0.0000E+00  0.8000E+01
    -23.983  0.0000E+00  0.8000E+01
    -23.764  0.0000E+00  0.8000E+01
    -23.545  0.0000E+00  0.8000E+01
    -23.326  0.0000E+00  0.8000E+01
    -23.107  0.0000E+00  0.8000E+01
    -22.888  0.0000E+00  0.8000E+01
    -22.669  0.0000E+00  0.8000E+01
    -22.450  0.0000E+00  0.8000E+01
    -22.231  0.0000E+00  0.8000E+01
    -22.012  0.0000E+00  0.8000E+01
    -21.793  0.0000E+00  0.8000E+01
    -21.573  0.0000E+00  0.8000E+01
    -21.354  0.0000E+00  0.8000E+01
    -21.135  0.0000E+00  0.8000E+01
    -20.916  0.0000E+00  0.8000E+01
    -20.697  0.0000E+00  0.8000E+01
    -20.478  0.0000E+00  0.8000E+01
    -20.259  0.0000E+00  0.8000E+01
    -20.040  0.0000E+00  0.8000E+01
    -19.821  0.0000E+00  0.8000E+01
    -19.602  0.0000E+00  0.8000E+01
    -19.383  0.0000E+00  0.8000E+01
    -19.163  0.0000E+00  0.8000E+01
    -18.944  0.0000E+00  0.8000E+01
    -18.725  0.0000E+00  0.8000E+01
    -18.506  0.0000E+00  0.8000E+01
    -18.287  0.0000E+00  0.8000E+01
    -18.068  0.0000E+00  0.8000E+01
    -17.849  0.0000E+00  0.8000E+01
    -17.630  0.0000E+00  0.8000E+01
    -17.411  0.0000E+00  0.8000E+01
    -17.192  0.0000E+00  0.8000E+01
    -16.973  0.0000E+00  0.8000E+01
    -16.753  0.0000E+00  0.8000E+01
    -16.534  0.0000E+00  0.8000E+01
    -16.315  0.0000E+00  0.8000E+01
    -16.096  0.0000E+00  0.8000E+01
    -15.877  0.0000E+00  0.8000E+01
    -15.658  0.0000E+00  0.8000E+01
    -15.439  0.0000E+00  0.8000E+01
    -15.220  0.0000E+00  0.8000E+01
    -15.001  0.0000E+00  0.8000E+01
    -14.782  0.0000E+00  0.8000E+01
    -14.563  0.0000E+00  0.8000E+01
    -14.343  0.0000E+00  0.8000E+01
    -14.124  0.0000E+00  0.8000E+01
    -13.905  0.0000E+00  0.8000E+01
    -13.686  0.0000E+00  0.8000E+01
    -13.467  0.0000E+00  0.8000E+01
    -13.248  0.0000E+00  0.8000E+01
    -13.029  0.0000E+00  0.8000E+01
    -12.810  0.0000E+00  0.8000E+01
    -12.591  0.0000E+00  0.8000E+01
    -12.372  0.0000E+00  0.8000E+01
    -12.153  0.0000E+00  0.8000E+01
    -11.933  0.0000E+00  0.8000E+01
    -11.714  0.0000E+00  0.8000E+01
    -11.495  0.0000E+00  0.8000E+01
    -11.276  0.4109E-13  0.8000E+01
    -11.057  0.2534E-05  0.8000E+01
    -10.838  0.3291E-01  0.8007E+01
    -10.619  0.1154E+01  0.8260E+01
    -10.400  0.2223E+01  0.8747E+01
    -10.181  0.2808E+01  0.9362E+01
     -9.962  0.3250E+01  0.1007E+02
     -9.743  0.4671E+01  0.1110E+02
     -9.523  0.5796E+01  0.1237E+02
     -9.304  0.3449E+01  0.1312E+02
     -9.085  0.2951E+01  0.1377E+02
     -8.866  0.2733E+01  0.1437E+02
     -8.647  0.1750E+01  0.1475E+02
     -8.428  0.2356E+01  0.1527E+02
     -8.209  0.1576E+01  0.1561E+02
     -7.990  0.1566E+01  0.1596E+02
     -7.771  0.1967E+00  0.1600E+02
     -7.552  0.1872E-03  0.1600E+02
     -7.333  0.9835E-10  0.1600E+02
     -7.113  0.8944E-04  0.1600E+02
     -6.894  0.7677E-01  0.1602E+02
     -6.675  0.7454E+00  0.1618E+02
     -6.456  0.2563E+01  0.1674E+02
     -6.237  0.6126E+01  0.1808E+02
     -6.018  0.9558E+01  0.2018E+02
     -5.799  0.1214E+02  0.2284E+02
     -5.580  0.1268E+02  0.2562E+02
     -5.361  0.1337E+02  0.2855E+02
     -5.142  0.1315E+02  0.3143E+02
     -4.923  0.2511E+01  0.3198E+02
     -4.703  0.1063E+00  0.3200E+02
     -4.484  0.1834E-04  0.3200E+02
     -4.265  0.5980E-12  0.3200E+02
     -4.046  0.0000E+00  0.3200E+02
     -3.827  0.0000E+00  0.3200E+02
     -3.608  0.0000E+00  0.3200E+02
     -3.389  0.0000E+00  0.3200E+02
     -3.170  0.0000E+00  0.3200E+02
     -2.951  0.0000E+00  0.3200E+02
     -2.732  0.0000E+00  0.3200E+02
     -2.513  0.0000E+00  0.3200E+02
     -2.293  0.0000E+00  0.3200E+02
     -2.074  0.0000E+00  0.3200E+02
     -1.855  0.0000E+00  0.3200E+02
     -1.636  0.0000E+00  0.3200E+02
     -1.417  0.0000E+00  0.3200E+02
     -1.198  0.0000E+00  0.3200E+02
     -0.979  0.0000E+00  0.3200E+02
     -0.760  0.0000E+00  0.3200E+02
     -0.541  0.0000E+00  0.3200E+02
     -0.322  0.0000E+00  0.3200E+02
     -0.103  0.0000E+00  0.3200E+02
      0.117  0.0000E+00  0.3200E+02
      0.336  0.0000E+00  0.3200E+02
      0.555  0.0000E+00  0.3200E+02
      0.774  0.0000E+00  0.3200E+02
      0.993  0.0000E+00  0.3200E+02
      1.212  0.0000E+00  0.3200E+02
      1.431  0.0000E+00  0.3200E+02
      1.650  0.1245E-10  0.3200E+02
      1.869  0.2724E-04  0.3200E+02
      2.088  0.9909E-02  0.3200E+02
      2.307  0.7198E-01  0.3202E+02
      2.527  0.1881E+00  0.3206E+02
      2.746  0.1832E+00  0.3210E+02
      2.965  0.1811E+00  0.3214E+02
      3.184  0.4835E+00  0.3224E+02
      3.403  0.2894E+00  0.3231E+02
      3.622  0.2962E+00  0.3237E+02
      3.841  0.6587E+00  0.3252E+02
      4.060  0.4973E+00  0.3263E+02
      4.279  0.5383E+00  0.3274E+02
      4.498  0.9594E+00  0.3295E+02
      4.717  0.3809E+00  0.3304E+02
      4.937  0.9191E+00  0.3324E+02
      5.156  0.1281E+01  0.3352E+02
      5.375  0.9533E+00  0.3373E+02
      5.594  0.1069E+01  0.3396E+02
      5.813  0.1195E+01  0.3422E+02
      6.032  0.1478E+01  0.3455E+02
      6.251  0.1506E+01  0.3488E+02
      6.470  0.1488E+01  0.3520E+02
      6.689  0.1770E+01  0.3559E+02
      6.908  0.1984E+01  0.3603E+02
      7.127  0.2042E+01  0.3647E+02
      7.347  0.1784E+01  0.3687E+02
      7.566  0.2268E+01  0.3736E+02
      7.785  0.2581E+01  0.3793E+02
      8.004  0.2374E+01  0.3845E+02
      8.223  0.2730E+01  0.3905E+02
      8.442  0.2412E+01  0.3957E+02
      8.661  0.1466E+01  0.3990E+02
      8.880  0.6938E+00  0.4005E+02
      9.099  0.5439E+00  0.4017E+02
      9.318  0.9281E+00  0.4037E+02
      9.537  0.9877E+00  0.4059E+02
      9.757  0.1260E+01  0.4086E+02
      9.976  0.3161E+01  0.4155E+02
     10.195  0.4179E+01  0.4247E+02
     10.414  0.4602E+01  0.4348E+02
     10.633  0.3718E+01  0.4429E+02
     10.852  0.4397E+01  0.4526E+02
     11.071  0.3125E+01  0.4594E+02
     11.290  0.1647E+01  0.4630E+02
     11.509  0.1893E+01  0.4672E+02
     11.728  0.1456E+01  0.4704E+02
     11.947  0.1580E+01  0.4738E+02
     12.167  0.6334E+00  0.4752E+02
     12.386  0.4095E+00  0.4761E+02
     12.605  0.5758E+00  0.4774E+02
     12.824  0.1243E+01  0.4801E+02
     13.043  0.1371E+01  0.4831E+02
     13.262  0.1712E+01  0.4868E+02
     13.481  0.1182E+01  0.4894E+02
     13.700  0.1982E+01  0.4938E+02
     13.919  0.1803E+01  0.4977E+02
     14.138  0.1546E+01  0.5011E+02
     14.357  0.1868E+01  0.5052E+02
     14.577  0.1832E+01  0.5092E+02
     14.796  0.3056E+01  0.5159E+02
     15.015  0.3365E+01  0.5233E+02
     15.234  0.3591E+01  0.5312E+02
     15.453  0.3179E+01  0.5381E+02
     15.672  0.1750E+01  0.5420E+02
     15.891  0.1906E+01  0.5461E+02
     16.110  0.2185E+01  0.5509E+02
     16.329  0.2400E+01  0.5562E+02
     16.548  0.1876E+01  0.5603E+02
     16.767  0.2047E+01  0.5648E+02
     16.987  0.2477E+01  0.5702E+02
     17.206  0.1452E+01  0.5734E+02
     17.425  0.1610E+01  0.5769E+02
     17.644  0.1968E+01  0.5812E+02
     17.863  0.1664E+01  0.5849E+02
     18.082  0.2107E+01  0.5895E+02
     18.301  0.2164E+01  0.5942E+02
     18.520  0.2447E+01  0.5996E+02
     18.739  0.2816E+01  0.6057E+02
     18.958  0.3341E+01  0.6131E+02
     19.177  0.3106E+01  0.6199E+02
     19.397  0.2414E+01  0.6252E+02
     19.616  0.2430E+01  0.6305E+02
     19.835  0.2340E+01  0.6356E+02
     20.054  0.3032E+01  0.6423E+02
     20.273  0.2075E+01  0.6468E+02
     20.492  0.2421E+01  0.6521E+02
     20.711  0.2501E+01  0.6576E+02
     20.930  0.2481E+01  0.6630E+02
     21.149  0.2556E+01  0.6686E+02
     21.368  0.2109E+01  0.6732E+02
     21.587  0.1806E+01  0.6772E+02
     21.807  0.2533E+01  0.6827E+02
     22.026  0.2473E+01  0.6882E+02
     22.245  0.2851E+01  0.6944E+02
     22.464  0.2389E+01  0.6996E+02
     22.683  0.2496E+01  0.7051E+02
     22.902  0.1960E+01  0.7094E+02
     23.121  0.1752E+01  0.7132E+02
     23.340  0.2146E+01  0.7179E+02
     23.559  0.1460E+01  0.7211E+02
     23.778  0.2105E+01  0.7258E+02
     23.997  0.2796E+01  0.7319E+02
     24.217  0.2190E+01  0.7367E+02
     24.436  0.2664E+01  0.7425E+02
     24.655  0.3284E+01  0.7497E+02
     24.874  0.2971E+01  0.7562E+02
     25.093  0.3301E+01  0.7635E+02
     25.312  0.2728E+01  0.7694E+02
     25.531  0.2673E+01  0.7753E+02
     25.750  0.2177E+01  0.7801E+02
     25.969  0.2481E+01  0.7855E+02
     26.188  0.2932E+01  0.7919E+02
     26.407  0.2066E+01  0.7964E+02
     26.627  0.2979E+01  0.8030E+02
     26.846  0.2600E+01  0.8087E+02
     27.065  0.2591E+01  0.8143E+02
     27.284  0.2600E+01  0.8200E+02
     27.503  0.2776E+01  0.8261E+02
     27.722  0.3042E+01  0.8328E+02
     27.941  0.1993E+01  0.8371E+02
     28.160  0.3224E+01  0.8442E+02
     28.379  0.3573E+01  0.8520E+02
     28.598  0.3283E+01  0.8592E+02
     28.817  0.3372E+01  0.8666E+02
     29.037  0.3157E+01  0.8735E+02
     29.256  0.3411E+01  0.8810E+02
     29.475  0.4141E+01  0.8901E+02
     29.694  0.3989E+01  0.8988E+02
     29.913  0.3122E+01  0.9057E+02
     30.132  0.2783E+01  0.9118E+02
     30.351  0.4205E+01  0.9210E+02
     30.570  0.3765E+01  0.9292E+02
     30.789  0.4073E+01  0.9381E+02
     31.008  0.3474E+01  0.9458E+02
     31.227  0.2952E+01  0.9522E+02
     31.447  0.1265E+01  0.9550E+02
     31.666  0.8019E+00  0.9568E+02
     31.885  0.5807E+00  0.9580E+02
     32.104  0.2915E+00  0.9587E+02
     32.323  0.1618E+00  0.9590E+02
     32.542  0.4877E-01  0.9591E+02
     32.761  0.1246E+00  0.9594E+02
     32.980  0.1683E+00  0.9598E+02
     33.199  0.4675E-01  0.9599E+02
     33.418  0.5857E-01  0.9600E+02
     33.637  0.1682E-02  0.9600E+02
     33.857  0.1375E-07  0.9600E+02
     34.076  0.1536E-16  0.9600E+02
     34.295  0.0000E+00  0.9600E+02
     34.514  0.0000E+00  0.9600E+02
     34.733  0.0000E+00  0.9600E+02
     34.952  0.0000E+00  0.9600E+02
     35.171  0.0000E+00  0.9600E+02
     35.390  0.0000E+00  0.9600E+02
     35.609  0.0000E+00  0.9600E+02
     35.828  0.0000E+00  0.9600E+02
     36.047  0.0000E+00  0.9600E+02
     36.267  0.0000E+00  0.9600E+02
