    8    8    1    1
  0.9237446E+01  0.3028512E-09  0.4483051E-09  0.5443008E-09  0.5000000E-15
  1.000000000000000E-004
  CAR 
 unknown system                          
     32    120     48
 
  0.0000000E+00  0.0000000E+00  0.0000000E+00  0.1893939E-02
    1      -26.473073
    2      -26.257760
    3      -25.671556
    4      -25.613051
    5      -10.776250
    6      -10.681379
    7       -8.010020
    8       -7.983153
    9       -6.919067
   10       -5.892468
   11       -5.667042
   12       -5.477783
   13       -5.373831
   14       -5.281578
   15       -4.992459
   16       -4.962866
   17        2.078059
   18        5.121076
   19        7.908961
   20        8.744130
   21        8.764600
   22       10.243717
   23       11.726391
   24       12.709270
   25       13.227234
   26       15.183796
   27       17.812519
   28       18.605429
   29       18.727790
   30       19.034930
   31       19.346379
   32       19.457697
   33       20.074049
   34       20.841079
   35       20.849469
   36       21.169017
   37       24.329492
   38       24.423815
   39       25.723298
   40       25.850329
   41       25.903127
   42       26.003153
   43       26.125818
   44       26.883476
   45       29.169942
   46       30.072141
   47       30.256637
   48       30.359527
 
  0.9090909E-01 -0.3081488E-32  0.0000000E+00  0.3787879E-02
    1      -26.449920
    2      -26.237841
    3      -25.679749
    4      -25.619084
    5      -10.722702
    6      -10.628125
    7       -8.061665
    8       -8.038371
    9       -6.878659
   10       -5.965052
   11       -5.731239
   12       -5.491721
   13       -5.363443
   14       -5.275080
   15       -5.099674
   16       -5.095926
   17        2.297123
   18        5.292552
   19        7.977877
   20        8.734521
   21        8.780186
   22       10.348934
   23       11.829173
   24       12.793432
   25       13.230652
   26       15.274694
   27       17.084254
   28       17.708344
   29       17.743699
   30       18.157126
   31       18.444597
   32       20.292167
   33       20.411213
   34       21.304407
   35       21.806113
   36       22.649028
   37       23.617901
   38       24.558623
   39       25.053484
   40       25.356411
   41       25.650336
   42       26.382255
   43       27.008088
   44       28.382715
   45       29.615924
   46       29.959171
   47       30.079616
   48       30.124197
 
  0.1818182E+00 -0.6162976E-32  0.0000000E+00  0.3787879E-02
    1      -26.384537
    2      -26.182535
    3      -25.706522
    4      -25.637898
    5      -10.565622
    6      -10.471812
    7       -8.214194
    8       -8.202473
    9       -6.761780
   10       -6.150458
   11       -5.895786
   12       -5.536523
   13       -5.444612
   14       -5.363992
   15       -5.335052
   16       -5.257846
   17        2.892162
   18        5.758166
   19        8.139938
   20        8.583844
   21        8.895219
   22       10.639152
   23       12.118894
   24       13.046224
   25       13.173086
   26       15.182275
   27       15.514357
   28       16.682865
   29       16.919877
   30       17.387884
   31       17.549308
   32       19.488167
   33       20.720352
   34       21.406304
   35       22.727227
   36       22.868107
   37       24.777799
   38       25.011217
   39       25.423773
   40       25.484956
   41       26.553080
   42       27.066515
   43       27.475702
   44       28.943870
   45       29.448114
   46       29.475837
   47       30.150112
   48       30.321969
 
  0.2727273E+00 -0.1232595E-31  0.0000000E+00  0.3787879E-02
    1      -26.285399
    2      -26.099068
    3      -25.754239
    4      -25.673151
    5      -10.315117
    6      -10.224246
    7       -8.466535
    8       -8.458866
    9       -6.582404
   10       -6.370750
   11       -6.092371
   12       -5.862859
   13       -5.699810
   14       -5.619459
   15       -5.296291
   16       -5.236562
   17        3.738296
   18        6.403526
   19        8.216257
   20        8.286578
   21        9.112653
   22       11.005293
   23       12.398119
   24       12.914013
   25       13.470745
   26       13.779345
   27       15.675633
   28       15.927918
   29       16.172129
   30       16.926948
   31       17.209469
   32       18.245409
   33       19.342965
   34       20.801263
   35       23.667114
   36       23.691712
   37       24.502898
   38       25.090094
   39       25.935357
   40       26.742782
   41       26.974123
   42       28.261684
   43       28.315750
   44       29.038457
   45       29.710621
   46       30.502501
   47       30.534869
   48       30.638397
 
  0.3636364E+00 -0.1232595E-31  0.0000000E+00  0.3787879E-02
    1      -26.165398
    2      -25.999400
    3      -25.827154
    4      -25.728008
    5       -9.988070
    6       -9.903509
    7       -8.810667
    8       -8.778914
    9       -6.539817
   10       -6.363911
   11       -6.245250
   12       -6.236519
   13       -6.006353
   14       -5.747734
   15       -5.257449
   16       -5.219772
   17        4.721390
   18        7.092829
   19        7.590543
   20        8.304913
   21        9.468337
   22       11.337104
   23       11.730030
   24       12.469992
   25       13.869655
   26       14.072064
   27       15.281793
   28       15.444279
   29       16.165624
   30       16.660099
   31       16.988972
   32       17.578563
   33       17.629767
   34       20.309744
   35       23.758675
   36       23.855956
   37       24.406175
   38       24.757054
   39       27.244264
   40       27.247823
   41       27.311889
   42       28.519252
   43       28.893056
   44       29.719005
   45       29.904155
   46       30.279732
   47       30.284959
   48       31.396978
 
  0.4545455E+00 -0.1232595E-31  0.0000000E+00  0.3787879E-02
    1      -26.040007
    2      -25.923992
    3      -25.896836
    4      -25.803929
    5       -9.607691
    6       -9.534661
    7       -9.203363
    8       -9.148392
    9       -6.591496
   10       -6.490795
   11       -6.296332
   12       -6.216319
   13       -6.134677
   14       -5.922582
   15       -5.228393
   16       -5.215520
   17        5.750648
   18        6.739371
   19        7.697185
   20        8.116151
   21       10.005704
   22       10.763115
   23       11.648931
   24       12.017981
   25       14.805238
   26       14.855846
   27       15.017355
   28       15.117164
   29       15.814928
   30       16.062751
   31       16.403775
   32       16.556711
   33       18.470196
   34       19.441649
   35       23.539848
   36       23.620782
   37       24.410996
   38       24.522370
   39       28.016608
   40       28.487642
   41       28.715053
   42       28.901844
   43       28.990152
   44       29.408074
   45       29.659200
   46       30.414586
   47       30.572532
   48       30.911934
 
  0.0000000E+00  0.1250000E+00  0.0000000E+00  0.3787879E-02
    1      -26.445681
    2      -26.233900
    3      -25.707785
    4      -25.635915
    5      -10.688970
    6      -10.591078
    7       -8.146389
    8       -8.104015
    9       -6.880417
   10       -5.861989
   11       -5.640537
   12       -5.617392
   13       -5.288989
   14       -5.273585
   15       -5.037343
   16       -4.983566
   17        2.293188
   18        5.326685
   19        7.645511
   20        8.766220
   21        8.772704
   22       10.321565
   23       11.091291
   24       13.217375
   25       13.573307
   26       15.033737
   27       18.014354
   28       18.687894
   29       18.714860
   30       18.721401
   31       19.027849
   32       19.561679
   33       19.597006
   34       20.591292
   35       20.884496
   36       21.172173
   37       24.229946
   38       24.267763
   39       25.124492
   40       25.848579
   41       26.046510
   42       26.727000
   43       27.077004
   44       27.909333
   45       28.398727
   46       30.211151
   47       30.343462
   48       30.363888
 
  0.9090909E-01  0.1250000E+00  0.0000000E+00  0.7575758E-02
    1      -26.423734
    2      -26.215176
    3      -25.714536
    4      -25.641090
    5      -10.641374
    6      -10.542839
    7       -8.200680
    8       -8.156818
    9       -6.840765
   10       -5.931183
   11       -5.702420
   12       -5.617959
   13       -5.289633
   14       -5.267924
   15       -5.135818
   16       -5.099043
   17        2.498340
   18        5.483832
   19        7.724596
   20        8.737283
   21        8.808842
   22       10.395298
   23       11.170925
   24       13.194518
   25       13.678893
   26       15.102170
   27       17.195554
   28       17.535229
   29       17.894472
   30       17.958448
   31       18.537538
   32       20.058149
   33       20.194266
   34       20.914276
   35       21.708597
   36       22.678145
   37       23.429955
   38       24.429830
   39       25.469863
   40       25.706581
   41       25.804768
   42       27.014484
   43       27.249329
   44       28.581337
   45       29.169550
   46       29.521143
   47       29.958424
   48       30.107383
 
  0.1818182E+00  0.1250000E+00  0.0000000E+00  0.7575758E-02
    1      -26.360913
    2      -26.162383
    3      -25.735972
    4      -25.657789
    5      -10.501846
    6      -10.401537
    7       -8.361052
    8       -8.310459
    9       -6.726522
   10       -6.106911
   11       -5.860234
   12       -5.628891
   13       -5.424696
   14       -5.360699
   15       -5.288285
   16       -5.251535
   17        3.060348
   18        5.911719
   19        7.906060
   20        8.608142
   21        8.924039
   22       10.583229
   23       11.398060
   24       13.056852
   25       13.996212
   26       15.271037
   27       15.301803
   28       16.528617
   29       16.840958
   30       17.483468
   31       17.866055
   32       18.852496
   33       20.764782
   34       22.029479
   35       22.517091
   36       22.677997
   37       24.612873
   38       24.941388
   39       25.025788
   40       26.118912
   41       26.743155
   42       27.405313
   43       27.442569
   44       28.976798
   45       29.215609
   46       29.485939
   47       29.685313
   48       30.465676
 
  0.2727273E+00  0.1250000E+00  0.0000000E+00  0.7575758E-02
    1      -26.266171
    2      -26.083020
    3      -25.776359
    4      -25.688885
    5      -10.280808
    6      -10.177564
    7       -8.616261
    8       -8.550697
    9       -6.552314
   10       -6.312577
   11       -6.046777
   12       -5.801078
   13       -5.673169
   14       -5.667419
   15       -5.277426
   16       -5.233604
   17        3.866212
   18        6.504562
   19        7.984638
   20        8.376404
   21        9.140722
   22       10.798659
   23       11.688422
   24       12.690257
   25       13.751049
   26       14.527814
   27       15.464355
   28       15.882681
   29       16.144275
   30       17.011442
   31       17.368834
   32       17.597285
   33       20.401082
   34       20.979348
   35       23.676857
   36       23.728724
   37       24.320075
   38       25.033284
   39       25.525353
   40       26.335123
   41       27.337314
   42       28.256184
   43       28.499702
   44       29.036802
   45       29.594882
   46       29.608159
   47       30.631513
   48       31.092987
 
  0.3636364E+00  0.1250000E+00  0.0000000E+00  0.7575758E-02
    1      -26.152517
    2      -25.988768
    3      -25.839994
    4      -25.737968
    5       -9.993380
    6       -9.887781
    7       -8.940235
    8       -8.856522
    9       -6.464470
   10       -6.342877
   11       -6.188323
   12       -6.145581
   13       -5.950052
   14       -5.770737
   15       -5.255569
   16       -5.220371
   17        4.808293
   18        7.138632
   19        7.539533
   20        8.282815
   21        9.492821
   22       11.009001
   23       11.527709
   24       12.168296
   25       13.173388
   26       15.275792
   27       15.313261
   28       15.387350
   29       15.940672
   30       16.164969
   31       16.724962
   32       17.940311
   33       18.858219
   34       20.568254
   35       24.065220
   36       24.072003
   37       24.304819
   38       24.734302
   39       26.065849
   40       26.487514
   41       28.363486
   42       28.632328
   43       28.697321
   44       29.164459
   45       29.975147
   46       30.271541
   47       30.681323
   48       31.376307
 
  0.4545455E+00  0.1250000E+00  0.0000000E+00  0.7575758E-02
    1      -26.035023
    2      -25.927554
    3      -25.893142
    4      -25.806920
    5       -9.658580
    6       -9.553844
    7       -9.298641
    8       -9.200662
    9       -6.500812
   10       -6.394114
   11       -6.230442
   12       -6.149677
   13       -6.120186
   14       -5.924250
   15       -5.232450
   16       -5.219188
   17        5.797278
   18        6.744116
   19        7.699113
   20        8.095570
   21       10.018450
   22       10.738171
   23       11.280396
   24       11.669023
   25       13.732605
   26       14.701877
   27       15.103302
   28       15.166367
   29       16.220487
   30       16.347891
   31       16.584600
   32       17.465025
   33       18.766690
   34       19.735158
   35       23.860847
   36       23.900267
   37       24.349852
   38       24.493776
   39       27.127977
   40       27.139114
   41       28.630716
   42       28.733209
   43       29.382407
   44       29.659545
   45       30.159806
   46       30.598209
   47       30.744671
   48       31.017954
 
  0.0000000E+00  0.2500000E+00  0.0000000E+00  0.3787879E-02
    1      -26.367128
    2      -26.165818
    3      -25.805894
    4      -25.705411
    5      -10.435404
    6      -10.331524
    7       -8.510107
    8       -8.440992
    9       -6.765395
   10       -5.841775
   11       -5.774097
   12       -5.564604
   13       -5.251942
   14       -5.219225
   15       -5.149114
   16       -5.056474
   17        2.893512
   18        5.895365
   19        6.922350
   20        8.665275
   21        8.864472
   22       10.320230
   23       10.654279
   24       13.106877
   25       14.697422
   26       15.040325
   27       17.370925
   28       18.272445
   29       18.556282
   30       18.685321
   31       19.000614
   32       19.069497
   33       19.984178
   34       20.195064
   35       21.069125
   36       21.478566
   37       22.775214
   38       23.684650
   39       26.143988
   40       26.265461
   41       26.317251
   42       26.421077
   43       27.539122
   44       28.163133
   45       29.106886
   46       29.950653
   47       30.394394
   48       30.515432
 
  0.9090909E-01  0.2500000E+00  0.0000000E+00  0.7575758E-02
    1      -26.347817
    2      -26.149655
    3      -25.808299
    4      -25.707577
    5      -10.404084
    6      -10.297401
    7       -8.562401
    8       -8.487152
    9       -6.728410
   10       -5.837938
   11       -5.829506
   12       -5.620599
   13       -5.249788
   14       -5.222968
   15       -5.219840
   16       -5.143248
   17        3.067246
   18        6.017846
   19        7.015256
   20        8.649697
   21        8.901254
   22       10.382554
   23       10.653463
   24       13.012384
   25       14.741687
   26       15.124292
   27       16.990029
   28       17.338649
   29       17.549713
   30       17.990545
   31       18.971461
   32       19.315373
   33       20.173717
   34       20.553363
   35       21.645977
   36       22.587090
   37       22.815639
   38       24.085580
   39       25.759085
   40       26.172832
   41       26.747803
   42       27.519588
   43       27.790687
   44       27.960574
   45       28.538554
   46       29.418127
   47       29.804822
   48       30.290953
 
  0.1818182E+00  0.2500000E+00  0.0000000E+00  0.7575758E-02
    1      -26.293026
    2      -26.104414
    3      -25.816881
    4      -25.716098
    5      -10.313033
    6      -10.197800
    7       -8.713329
    8       -8.620452
    9       -6.622723
   10       -5.986311
   11       -5.813522
   12       -5.761482
   13       -5.417427
   14       -5.363000
   15       -5.236019
   16       -5.233344
   17        3.548946
   18        6.349209
   19        7.241974
   20        8.573611
   21        9.017845
   22       10.546094
   23       10.630401
   24       12.685672
   25       14.870481
   26       15.206525
   27       15.877338
   28       16.361707
   29       16.422997
   30       17.477901
   31       17.871332
   32       18.768681
   33       20.976896
   34       22.020309
   35       22.315550
   36       22.496823
   37       24.541421
   38       24.721847
   39       24.917976
   40       26.479036
   41       26.888502
   42       27.729957
   43       28.237915
   44       28.457957
   45       28.854279
   46       29.553559
   47       29.566900
   48       30.044168
 
  0.2727273E+00  0.2500000E+00  0.0000000E+00  0.7575758E-02
    1      -26.211370
    2      -26.036982
    3      -25.837406
    4      -25.734366
    5      -10.169731
    6      -10.041134
    7       -8.942522
    8       -8.824786
    9       -6.463990
   10       -6.156936
   11       -5.926656
   12       -5.803216
   13       -5.689062
   14       -5.615513
   15       -5.245673
   16       -5.226243
   17        4.249885
   18        6.802859
   19        7.437722
   20        8.407609
   21        9.233747
   22       10.483685
   23       10.840600
   24       12.130763
   25       13.946327
   26       15.052490
   27       15.692550
   28       16.112038
   29       16.118625
   30       16.329174
   31       17.048307
   32       18.651548
   33       21.376905
   34       21.966648
   35       23.458843
   36       23.606432
   37       23.835745
   38       24.942923
   39       25.290535
   40       25.308251
   41       27.807581
   42       28.162970
   43       28.410411
   44       28.678789
   45       29.307882
   46       29.683012
   47       30.802226
   48       31.149943
 
  0.3636364E+00  0.2500000E+00  0.0000000E+00  0.7575758E-02
    1      -26.115713
    2      -25.958869
    3      -25.876466
    4      -25.766913
    5       -9.982246
    6       -9.838624
    7       -9.215871
    8       -9.074810
    9       -6.277838
   10       -6.272029
   11       -6.045532
   12       -5.960582
   13       -5.840372
   14       -5.836045
   15       -5.250136
   16       -5.222468
   17        5.076752
   18        7.283411
   19        7.306329
   20        8.231143
   21        9.575410
   22       10.410038
   23       11.000924
   24       11.502179
   25       12.975320
   26       14.883252
   27       15.141528
   28       15.287461
   29       16.163235
   30       16.646605
   31       16.999878
   32       18.968758
   33       20.606502
   34       21.301039
   35       23.800637
   36       24.585053
   37       24.677369
   38       24.753235
   39       25.015166
   40       25.230955
   41       27.342431
   42       28.073534
   43       28.654418
   44       29.017290
   45       30.280174
   46       30.871433
   47       31.148813
   48       31.213355
 
  0.4545455E+00  0.2500000E+00  0.0000000E+00  0.7575758E-02
    1      -26.020379
    2      -25.937960
    3      -25.882178
    4      -25.816414
    5       -9.755925
    6       -9.601673
    7       -9.496073
    8       -9.341784
    9       -6.283111
   10       -6.183043
   11       -6.079043
   12       -6.075745
   13       -6.001773
   14       -5.931012
   15       -5.241625
   16       -5.228723
   17        5.940264
   18        6.737613
   19        7.714848
   20        8.037966
   21       10.063769
   22       10.555597
   23       10.654046
   24       10.947366
   25       13.003297
   26       13.765632
   27       15.094933
   28       15.102411
   29       16.312898
   30       16.483660
   31       17.982330
   32       19.220819
   33       19.717165
   34       20.605664
   35       24.112196
   36       24.369533
   37       24.396147
   38       24.489475
   39       26.071227
   40       26.074529
   41       27.245062
   42       27.535914
   43       29.327369
   44       29.616642
   45       30.386026
   46       30.952391
   47       31.195288
   48       31.224100
 
  0.0000000E+00  0.3750000E+00  0.0000000E+00  0.3787879E-02
    1      -26.246515
    2      -26.062439
    3      -25.944300
    4      -25.812209
    5      -10.040564
    6       -9.932273
    7       -9.008855
    8       -8.916166
    9       -6.582928
   10       -6.095419
   11       -5.639402
   12       -5.449517
   13       -5.303188
   14       -5.223504
   15       -5.193040
   16       -5.172966
   17        3.775901
   18        5.919662
   19        6.704722
   20        8.280392
   21        9.037924
   22        9.744875
   23       11.236748
   24       12.709171
   25       14.733191
   26       16.139298
   27       16.526923
   28       17.874715
   29       18.111412
   30       18.756960
   31       18.944868
   32       19.123368
   33       19.648223
   34       20.996130
   35       21.517309
   36       21.554049
   37       22.522116
   38       22.879468
   39       24.154410
   40       25.813301
   41       26.445006
   42       26.607369
   43       28.031890
   44       28.376213
   45       29.906129
   46       30.652406
   47       30.830149
   48       31.182164
 
  0.9090909E-01  0.3750000E+00  0.0000000E+00  0.7575758E-02
    1      -26.231339
    2      -26.050092
    3      -25.940705
    4      -25.809948
    5      -10.032445
    6       -9.919061
    7       -9.048165
    8       -8.948082
    9       -6.550713
   10       -6.077829
   11       -5.690021
   12       -5.500029
   13       -5.355898
   14       -5.237221
   15       -5.219759
   16       -5.196341
   17        3.916942
   18        6.022675
   19        6.784952
   20        8.289488
   21        9.076847
   22        9.795712
   23       11.153501
   24       12.548978
   25       14.718594
   26       16.002189
   27       16.504033
   28       17.139550
   29       17.727686
   30       18.291963
   31       18.472473
   32       19.411123
   33       19.835484
   34       21.111151
   35       21.230901
   36       21.933096
   37       23.163412
   38       23.820693
   39       24.944704
   40       25.987175
   41       26.563522
   42       26.926664
   43       28.169524
   44       28.250337
   45       29.465873
   46       29.903735
   47       30.424754
   48       30.633091
 
  0.1818182E+00  0.3750000E+00  0.0000000E+00  0.7575758E-02
    1      -26.189060
    2      -26.016251
    3      -25.932448
    4      -25.805429
    5      -10.009203
    6       -9.880835
    7       -9.160432
    8       -9.039454
    9       -6.459750
   10       -6.031792
   11       -5.814558
   12       -5.627015
   13       -5.490901
   14       -5.397750
   15       -5.218026
   16       -5.206860
   17        4.308974
   18        6.291587
   19        6.994446
   20        8.288056
   21        9.198186
   22        9.945971
   23       10.888240
   24       12.092358
   25       14.730668
   26       15.654078
   27       15.715763
   28       16.537539
   29       16.997683
   30       17.226423
   31       17.572637
   32       19.820770
   33       21.160479
   34       21.325874
   35       21.726706
   36       22.084997
   37       24.707698
   38       24.845847
   39       24.948456
   40       25.747663
   41       27.636563
   42       28.008167
   43       28.166417
   44       28.581379
   45       29.123437
   46       29.281009
   47       29.630672
   48       30.027753
 
  0.2727273E+00  0.3750000E+00  0.0000000E+00  0.7575758E-02
    1      -26.128313
    2      -25.967874
    3      -25.926473
    4      -25.803563
    5       -9.971152
    6       -9.820509
    7       -9.326246
    8       -9.176949
    9       -6.326687
   10       -5.985409
   11       -5.942063
   12       -5.773124
   13       -5.660027
   14       -5.600150
   15       -5.224194
   16       -5.218747
   17        4.877607
   18        6.613665
   19        7.262873
   20        8.227103
   21        9.415104
   22       10.184541
   23       10.476167
   24       11.453570
   25       14.269259
   26       14.819202
   27       15.252507
   28       15.460910
   29       16.327280
   30       16.875469
   31       18.013812
   32       19.971037
   33       21.780901
   34       21.829445
   35       23.159933
   36       23.173924
   37       24.032373
   38       24.908794
   39       24.972927
   40       25.209219
   41       26.729497
   42       28.136310
   43       28.687923
   44       28.706782
   45       29.952038
   46       30.266710
   47       30.700479
   48       30.936496
 
  0.3636364E+00  0.3750000E+00  0.0000000E+00  0.7575758E-02
    1      -26.060557
    2      -25.931463
    3      -25.914454
    4      -25.810580
    5       -9.912293
    6       -9.738625
    7       -9.513170
    8       -9.337836
    9       -6.178421
   10       -6.047193
   11       -5.937014
   12       -5.879131
   13       -5.826324
   14       -5.777964
   15       -5.242191
   16       -5.226766
   17        5.533519
   18        6.803318
   19        7.528266
   20        8.103277
   21        9.740912
   22       10.097502
   23       10.448855
   24       10.802174
   25       13.130862
   26       14.089322
   27       14.902320
   28       15.050135
   29       16.293817
   30       16.617467
   31       18.836472
   32       20.374301
   33       22.109941
   34       22.467430
   35       22.854855
   36       23.684186
   37       24.189239
   38       24.723284
   39       25.282050
   40       25.305075
   41       25.821572
   42       26.774922
   43       28.691446
   44       29.229775
   45       30.631996
   46       30.986539
   47       31.237495
   48       31.242535
 
  0.4545455E+00  0.3750000E+00  0.0000000E+00  0.7575758E-02
    1      -25.999432
    2      -25.954615
    3      -25.866532
    4      -25.830890
    5       -9.820462
    6       -9.685957
    7       -9.631387
    8       -9.495830
    9       -6.058538
   10       -6.056276
   11       -5.956737
   12       -5.953861
   13       -5.916497
   14       -5.887117
   15       -5.248872
   16       -5.240263
   17        6.174045
   18        6.655977
   19        7.760640
   20        7.950443
   21       10.001639
   22       10.153779
   23       10.278288
   24       10.496000
   25       12.678774
   26       13.105176
   27       14.927554
   28       14.946183
   29       16.343300
   30       16.445648
   31       19.918376
   32       21.071713
   33       21.199159
   34       21.817672
   35       23.575477
   36       23.845142
   37       24.098142
   38       24.398142
   39       25.417197
   40       25.656408
   41       26.016640
   42       26.046630
   43       29.141024
   44       29.421761
   45       30.412862
   46       30.850131
   47       31.016209
   48       31.113543
 
  0.0000000E+00  0.5000000E+00  0.0000000E+00  0.1893939E-02
    1      -26.098871
    2      -26.098871
    3      -25.938396
    4      -25.938396
    5       -9.545399
    6       -9.545399
    7       -9.439770
    8       -9.439770
    9       -6.351474
   10       -6.351474
   11       -5.475001
   12       -5.475001
   13       -5.311855
   14       -5.311855
   15       -5.199274
   16       -5.199274
   17        4.823921
   18        4.823921
   19        7.572496
   20        7.572496
   21        9.321168
   22        9.321168
   23       12.002307
   24       12.002307
   25       15.216719
   26       15.216719
   27       17.804897
   28       17.804897
   29       17.974982
   30       17.974982
   31       18.857779
   32       18.857779
   33       20.456412
   34       20.456412
   35       21.947011
   36       21.947011
   37       22.529499
   38       22.529499
   39       24.117011
   40       24.117011
   41       26.621193
   42       26.621193
   43       28.363678
   44       28.363678
   45       30.821917
   46       30.821917
   47       31.218438
   48       31.218438
 
  0.9090909E-01  0.5000000E+00  0.0000000E+00  0.3787879E-02
    1      -26.089212
    2      -26.089212
    3      -25.930741
    4      -25.930741
    5       -9.562727
    6       -9.562727
    7       -9.450191
    8       -9.450191
    9       -6.325881
   10       -6.325881
   11       -5.520950
   12       -5.520950
   13       -5.362729
   14       -5.362729
   15       -5.200261
   16       -5.200261
   17        4.941214
   18        4.941214
   19        7.613769
   20        7.613769
   21        9.364640
   22        9.364640
   23       11.853451
   24       11.853451
   25       15.154133
   26       15.154133
   27       17.325146
   28       17.325146
   29       17.615020
   30       17.615020
   31       19.605227
   32       19.605227
   33       19.642964
   34       19.642964
   35       21.782959
   36       21.782959
   37       23.850650
   38       23.850650
   39       24.533267
   40       24.533267
   41       26.827497
   42       26.827497
   43       28.409032
   44       28.409032
   45       29.900713
   46       29.900713
   47       30.914337
   48       30.914337
 
  0.1818182E+00  0.5000000E+00  0.0000000E+00  0.3787879E-02
    1      -26.063111
    2      -26.063111
    3      -25.911359
    4      -25.911359
    5       -9.612435
    6       -9.612435
    7       -9.480391
    8       -9.480391
    9       -6.255141
   10       -6.255141
   11       -5.635227
   12       -5.635227
   13       -5.492397
   14       -5.492397
   15       -5.205040
   16       -5.205040
   17        5.260857
   18        5.260857
   19        7.707257
   20        7.707257
   21        9.496332
   22        9.496332
   23       11.432492
   24       11.432492
   25       15.020575
   26       15.020575
   27       16.265738
   28       16.265738
   29       16.887100