       N       E                     dE             d eps       ncg     rms          rms(c)
DAV:   1     0.398902456728E+02    0.39890E+02   -0.21110E+04 11520   0.622E+02
DAV:   2    -0.344860095753E+02   -0.74376E+02   -0.74376E+02 17184   0.997E+01
DAV:   3    -0.346749920202E+02   -0.18898E+00   -0.18898E+00 11712   0.612E+00
DAV:   4    -0.346753808520E+02   -0.38883E-03   -0.38883E-03 22800   0.267E-01
DAV:   5    -0.346753808536E+02   -0.16580E-08   -0.16749E-08 11712   0.453E-04    0.992E+00
DAV:   6    -0.327280331941E+02    0.19473E+01   -0.10537E+01 12384   0.908E+00    0.404E+00
DAV:   7    -0.327295497447E+02   -0.15166E-02   -0.79456E-02 17472   0.118E+00    0.238E+00
DAV:   8    -0.327535634328E+02   -0.24014E-01   -0.48473E-02 17136   0.101E+00    0.181E-01
DAV:   9    -0.327542261597E+02   -0.66273E-03   -0.16489E-03 18432   0.153E-01    0.914E-02
DAV:  10    -0.327545567133E+02   -0.33055E-03   -0.38145E-04 18768   0.762E-02    0.122E-02
DAV:  11    -0.327545571607E+02   -0.44745E-06   -0.11322E-05 15888   0.148E-02    0.588E-03
DAV:  12    -0.327545586495E+02   -0.14888E-05   -0.25951E-06 18864   0.533E-03    0.102E-03
DAV:  13    -0.327545586658E+02   -0.16272E-07   -0.22427E-08 13344   0.617E-04
   1 F= -.32754559E+02 E0= -.32754559E+02  d E =-.418748E-14
