   3   3   0   0
  0.5188670E+02  0.3190406E-09  0.3190406E-09  0.1765854E-08  0.5000000E-15
  1.000000000000000E-004
  CAR 
 unknown system                          
     24.97264575    -18.13611235  301     -1.88051815      1.00000000
    -18.136  0.0000E+00  0.0000E+00
    -17.992  0.0000E+00  0.0000E+00
    -17.849  0.0000E+00  0.0000E+00
    -17.705  0.0000E+00  0.0000E+00
    -17.561  0.0000E+00  0.0000E+00
    -17.418  0.0000E+00  0.0000E+00
    -17.274  0.0000E+00  0.0000E+00
    -17.130  0.0000E+00  0.0000E+00
    -16.987  0.0000E+00  0.0000E+00
    -16.843  0.0000E+00  0.0000E+00
    -16.699  0.0000E+00  0.0000E+00
    -16.555  0.0000E+00  0.0000E+00
    -16.412  0.1409E-11  0.2025E-12
    -16.268  0.4687E-03  0.6736E-04
    -16.124  0.1498E+00  0.2159E-01
    -15.981  0.5288E+00  0.9758E-01
    -15.837  0.6466E+00  0.1905E+00
    -15.693  0.5103E+00  0.2638E+00
    -15.550  0.5747E+00  0.3464E+00
    -15.406  0.7951E+00  0.4607E+00
    -15.262  0.3737E+00  0.5144E+00
    -15.118  0.1001E+01  0.6582E+00
    -14.975  0.8342E+00  0.7780E+00
    -14.831  0.1389E+01  0.9776E+00
    -14.687  0.2712E+01  0.1367E+01
    -14.544  0.2525E+01  0.1730E+01
    -14.400  0.3963E+01  0.2299E+01
    -14.256  0.3941E+01  0.2866E+01
    -14.113  0.4857E+01  0.3564E+01
    -13.969  0.2831E+01  0.3971E+01
    -13.825  0.2049E+00  0.4000E+01
    -13.682  0.3151E-05  0.4000E+01
    -13.538  0.0000E+00  0.4000E+01
    -13.394  0.0000E+00  0.4000E+01
    -13.250  0.0000E+00  0.4000E+01
    -13.107  0.0000E+00  0.4000E+01
    -12.963  0.0000E+00  0.4000E+01
    -12.819  0.0000E+00  0.4000E+01
    -12.676  0.0000E+00  0.4000E+01
    -12.532  0.0000E+00  0.4000E+01
    -12.388  0.0000E+00  0.4000E+01
    -12.245  0.0000E+00  0.4000E+01
    -12.101  0.0000E+00  0.4000E+01
    -11.957  0.0000E+00  0.4000E+01
    -11.813  0.0000E+00  0.4000E+01
    -11.670  0.0000E+00  0.4000E+01
    -11.526  0.0000E+00  0.4000E+01
    -11.382  0.0000E+00  0.4000E+01
    -11.239  0.0000E+00  0.4000E+01
    -11.095  0.0000E+00  0.4000E+01
    -10.951  0.0000E+00  0.4000E+01
    -10.808  0.0000E+00  0.4000E+01
    -10.664  0.0000E+00  0.4000E+01
    -10.520  0.0000E+00  0.4000E+01
    -10.377  0.0000E+00  0.4000E+01
    -10.233  0.0000E+00  0.4000E+01
    -10.089  0.0000E+00  0.4000E+01
     -9.945  0.0000E+00  0.4000E+01
     -9.802  0.0000E+00  0.4000E+01
     -9.658  0.0000E+00  0.4000E+01
     -9.514  0.0000E+00  0.4000E+01
     -9.371  0.0000E+00  0.4000E+01
     -9.227  0.0000E+00  0.4000E+01
     -9.083  0.0000E+00  0.4000E+01
     -8.940  0.0000E+00  0.4000E+01
     -8.796  0.0000E+00  0.4000E+01
     -8.652  0.0000E+00  0.4000E+01
     -8.508  0.0000E+00  0.4000E+01
     -8.365  0.0000E+00  0.4000E+01
     -8.221  0.0000E+00  0.4000E+01
     -8.077  0.2809E-10  0.4000E+01
     -7.934  0.3094E-02  0.4000E+01
     -7.790  0.2997E+00  0.4044E+01
     -7.646  0.1761E+01  0.4297E+01
     -7.503  0.9390E+00  0.4432E+01
     -7.359  0.3601E+01  0.4949E+01
     -7.215  0.2959E+01  0.5374E+01
     -7.072  0.4619E+01  0.6038E+01
     -6.928  0.3568E+01  0.6551E+01
     -6.784  0.1113E+01  0.6710E+01
     -6.640  0.7365E+00  0.6816E+01
     -6.497  0.1285E+01  0.7001E+01
     -6.353  0.1058E+01  0.7153E+01
     -6.209  0.6580E+00  0.7248E+01
     -6.066  0.2438E+01  0.7598E+01
     -5.922  0.6409E+01  0.8519E+01
     -5.778  0.3492E+01  0.9021E+01
     -5.635  0.2000E+01  0.9308E+01
     -5.491  0.4258E+00  0.9369E+01
     -5.347  0.2675E+01  0.9753E+01
     -5.203  0.7207E+01  0.1079E+02
     -5.060  0.2446E+01  0.1114E+02
     -4.916  0.2904E+01  0.1156E+02
     -4.772  0.5096E+00  0.1163E+02
     -4.629  0.2029E+01  0.1192E+02
     -4.485  0.1351E+01  0.1212E+02
     -4.341  0.2986E+01  0.1255E+02
     -4.198  0.1471E+01  0.1276E+02
     -4.054  0.3278E+01  0.1323E+02
     -3.910  0.2932E+01  0.1365E+02
     -3.767  0.4181E+01  0.1425E+02
     -3.623  0.3616E+01  0.1477E+02
     -3.479  0.1485E+01  0.1498E+02
     -3.335  0.2719E+01  0.1537E+02
     -3.192  0.1243E+01  0.1555E+02
     -3.048  0.3467E+01  0.1605E+02
     -2.904  0.2474E+01  0.1641E+02
     -2.761  0.3096E+01  0.1685E+02
     -2.617  0.3046E+01  0.1729E+02
     -2.473  0.1321E+01  0.1748E+02
     -2.330  0.1872E+01  0.1775E+02
     -2.186  0.1106E+01  0.1791E+02
     -2.042  0.6472E+00  0.1800E+02
     -1.898  0.2146E-02  0.1800E+02
     -1.755  0.3525E-10  0.1800E+02
     -1.611  0.0000E+00  0.1800E+02
     -1.467  0.0000E+00  0.1800E+02
     -1.324  0.0000E+00  0.1800E+02
     -1.180  0.0000E+00  0.1800E+02
     -1.036  0.0000E+00  0.1800E+02
     -0.893  0.0000E+00  0.1800E+02
     -0.749  0.5853E-13  0.1800E+02
     -0.605  0.1662E-03  0.1800E+02
     -0.462  0.1591E+00  0.1802E+02
     -0.318  0.8620E-01  0.1804E+02
     -0.174  0.1461E+01  0.1825E+02
     -0.030  0.3023E+01  0.1868E+02
      0.113  0.7146E+01  0.1971E+02
      0.257  0.2489E+01  0.2006E+02
      0.401  0.5876E+01  0.2091E+02
      0.544  0.4393E+01  0.2154E+02
      0.688  0.4134E+01  0.2213E+02
      0.832  0.2715E+01  0.2252E+02
      0.975  0.2881E+01  0.2294E+02
      1.119  0.2137E+01  0.2324E+02
      1.263  0.2848E+01  0.2365E+02
      1.407  0.2142E+01  0.2396E+02
      1.550  0.2361E+00  0.2400E+02
      1.694  0.2411E+01  0.2434E+02
      1.838  0.1180E+01  0.2451E+02
      1.981  0.1744E+01  0.2476E+02
      2.125  0.3175E+01  0.2522E+02
      2.269  0.2105E+01  0.2552E+02
      2.412  0.1541E+01  0.2574E+02
      2.556  0.9668E+00  0.2588E+02
      2.700  0.7283E+00  0.2599E+02
      2.843  0.9429E-01  0.2600E+02
      2.987  0.4072E-05  0.2600E+02
      3.131  0.4198E-04  0.2600E+02
      3.275  0.7426E-01  0.2601E+02
      3.418  0.2561E+00  0.2605E+02
      3.562  0.3926E+00  0.2610E+02
      3.706  0.5934E+00  0.2619E+02
      3.849  0.9396E+00  0.2632E+02
      3.993  0.7433E+00  0.2643E+02
      4.137  0.9185E+00  0.2656E+02
      4.280  0.1513E+01  0.2678E+02
      4.424  0.1417E+01  0.2698E+02
      4.568  0.2784E+01  0.2738E+02
      4.712  0.6124E+00  0.2747E+02
      4.855  0.1040E+01  0.2762E+02
      4.999  0.4058E+01  0.2820E+02
      5.143  0.3622E+01  0.2873E+02
      5.286  0.1043E+01  0.2888E+02
      5.430  0.1399E+01  0.2908E+02
      5.574  0.2279E+01  0.2940E+02
      5.717  0.1119E+01  0.2956E+02
      5.861  0.4399E+01  0.3020E+02
      6.005  0.1737E+01  0.3045E+02
      6.148  0.2924E+01  0.3087E+02
      6.292  0.3305E+01  0.3134E+02
      6.436  0.3289E+01  0.3181E+02
      6.580  0.4484E+01  0.3246E+02
      6.723  0.3277E+01  0.3293E+02
      6.867  0.3358E+01  0.3341E+02
      7.011  0.4486E+01  0.3406E+02
      7.154  0.1362E+01  0.3425E+02
      7.298  0.2740E+01  0.3465E+02
      7.442  0.2798E+01  0.3505E+02
      7.585  0.6292E+01  0.3595E+02
      7.729  0.3702E+01  0.3648E+02
      7.873  0.3014E+01  0.3692E+02
      8.017  0.5329E+01  0.3768E+02
      8.160  0.4569E+01  0.3834E+02
      8.304  0.5820E+01  0.3918E+02
      8.448  0.1207E+01  0.3935E+02
      8.591  0.4654E+01  0.4002E+02
      8.735  0.2967E+01  0.4044E+02
      8.879  0.1656E+01  0.4068E+02
      9.022  0.4283E+01  0.4130E+02
      9.166  0.2168E+01  0.4161E+02
      9.310  0.1788E+01  0.4187E+02
      9.453  0.4532E+01  0.4252E+02
      9.597  0.7206E+01  0.4355E+02
      9.741  0.6226E+01  0.4445E+02
      9.885  0.5898E+01  0.4530E+02
     10.028  0.4017E+01  0.4587E+02
     10.172  0.2634E+01  0.4625E+02
     10.316  0.4701E+01  0.4693E+02
     10.459  0.3624E+01  0.4745E+02
     10.603  0.4313E+01  0.4807E+02
     10.747  0.5335E+01  0.4883E+02
     10.890  0.4640E+01  0.4950E+02
     11.034  0.3726E+01  0.5004E+02
     11.178  0.3201E+01  0.5050E+02
     11.322  0.3649E+01  0.5102E+02
     11.465  0.2837E+01  0.5143E+02
     11.609  0.4897E+01  0.5213E+02
     11.753  0.5142E+01  0.5287E+02
     11.896  0.4699E+01  0.5355E+02
     12.040  0.1845E+01  0.5381E+02
     12.184  0.5393E+01  0.5459E+02
     12.327  0.3773E+01  0.5513E+02
     12.471  0.6725E+01  0.5609E+02
     12.615  0.2906E+01  0.5651E+02
     12.758  0.3101E+01  0.5696E+02
     12.902  0.3822E+01  0.5751E+02
     13.046  0.4231E+01  0.5811E+02
     13.190  0.5711E+01  0.5893E+02
     13.333  0.3492E+01  0.5944E+02
     13.477  0.3062E+01  0.5988E+02
     13.621  0.5574E+01  0.6068E+02
     13.764  0.4196E+01  0.6128E+02
     13.908  0.2149E+01  0.6159E+02
     14.052  0.3142E+01  0.6204E+02
     14.195  0.2101E+01  0.6234E+02
     14.339  0.3305E+01  0.6282E+02
     14.483  0.5365E+01  0.6359E+02
     14.627  0.2732E+01  0.6398E+02
     14.770  0.7809E+01  0.6510E+02
     14.914  0.6031E+01  0.6597E+02
     15.058  0.4083E+01  0.6656E+02
     15.201  0.2998E+01  0.6699E+02
     15.345  0.4259E+01  0.6760E+02
     15.489  0.3839E+01  0.6815E+02
     15.632  0.3372E+01  0.6864E+02
     15.776  0.3351E+01  0.6912E+02
     15.920  0.4731E+01  0.6980E+02
     16.064  0.4246E+01  0.7041E+02
     16.207  0.5113E+01  0.7114E+02
     16.351  0.3923E+01  0.7171E+02
     16.495  0.5896E+01  0.7255E+02
     16.638  0.3475E+01  0.7305E+02
     16.782  0.3911E+01  0.7361E+02
     16.926  0.3883E+01  0.7417E+02
     17.069  0.5266E+01  0.7493E+02
     17.213  0.7511E+01  0.7601E+02
     17.357  0.4015E+01  0.7658E+02
     17.500  0.4090E+01  0.7717E+02
     17.644  0.4982E+01  0.7789E+02
     17.788  0.3511E+01  0.7839E+02
     17.932  0.3431E+01  0.7889E+02
     18.075  0.4162E+01  0.7948E+02
     18.219  0.2914E+01  0.7990E+02
     18.363  0.5284E+01  0.8066E+02
     18.506  0.2179E+01  0.8098E+02
     18.650  0.3471E+01  0.8147E+02
     18.794  0.6293E+01  0.8238E+02
     18.937  0.3795E+01  0.8292E+02
     19.081  0.7050E+01  0.8394E+02
     19.225  0.4428E+01  0.8457E+02
     19.369  0.6056E+01  0.8544E+02
     19.512  0.3052E+01  0.8588E+02
     19.656  0.4353E+01  0.8651E+02
     19.800  0.3948E+01  0.8707E+02
     19.943  0.7393E+01  0.8814E+02
     20.087  0.6131E+01  0.8902E+02
     20.231  0.4065E+01  0.8960E+02
     20.374  0.3891E+01  0.9016E+02
     20.518  0.3037E+01  0.9060E+02
     20.662  0.5457E+01  0.9138E+02
     20.805  0.3117E+01  0.9183E+02
     20.949  0.4323E+01  0.9245E+02
     21.093  0.5461E+01  0.9324E+02
     21.237  0.3736E+01  0.9377E+02
     21.380  0.5634E+01  0.9458E+02
     21.524  0.4660E+01  0.9525E+02
     21.668  0.1666E+01  0.9549E+02
     21.811  0.8771E+00  0.9562E+02
     21.955  0.7167E+00  0.9572E+02
     22.099  0.5870E+00  0.9580E+02
     22.242  0.1470E+00  0.9583E+02
     22.386  0.6255E+00  0.9592E+02
     22.530  0.9294E-02  0.9592E+02
     22.674  0.5644E-01  0.9592E+02
     22.817  0.3294E+00  0.9597E+02
     22.961  0.1422E-01  0.9597E+02
     23.105  0.1789E+00  0.9600E+02
     23.248  0.9374E-03  0.9600E+02
     23.392  0.2819E-11  0.9600E+02
     23.536  0.0000E+00  0.9600E+02
     23.679  0.0000E+00  0.9600E+02
     23.823  0.0000E+00  0.9600E+02
     23.967  0.0000E+00  0.9600E+02
     24.110  0.0000E+00  0.9600E+02
     24.254  0.0000E+00  0.9600E+02
     24.398  0.0000E+00  0.9600E+02
     24.542  0.0000E+00  0.9600E+02
     24.685  0.0000E+00  0.9600E+02
     24.829  0.0000E+00  0.9600E+02
     24.973  0.0000E+00  0.9600E+02
