    3    3    1    1
  0.5188670E+02  0.3190406E-09  0.3190406E-09  0.1765854E-08  0.5000000E-15
  1.000000000000000E-004
  CAR 
 unknown system                          
     18     31     48
 
  0.0000000E+00  0.0000000E+00  0.0000000E+00  0.6944444E-02
    1      -16.176623
    2      -14.949765
    3       -7.694612
    4       -4.750453
    5       -4.750452
    6       -3.841278
    7       -3.636136
    8       -3.636135
    9       -2.116293
   10        0.639102
   11        0.639103
   12        0.876252
   13        0.876253
   14        3.248605
   15        3.563672
   16        4.203506
   17        4.766082
   18        6.054645
   19        6.971628
   20        7.456061
   21        8.868274
   22        8.868274
   23        9.815136
   24       10.427716
   25       10.942780
   26       10.942781
   27       11.810859
   28       14.300792
   29       14.391971
   30       14.391971
   31       14.420096
   32       14.420096
   33       14.794919
   34       15.235311
   35       17.528412
   36       17.638063
   37       20.610279
   38       20.610280
   39       20.692436
   40       20.749379
   41       22.230295
   42       22.230301
   43       22.700532
   44       22.710950
   45       22.710986
   46       22.725135
   47       23.013155
   48       23.013157
 
  0.8333300E-01  0.0000000E+00  0.0000000E+00  0.4166667E-01
    1      -16.079869
    2      -14.904013
    3       -7.581136
    4       -4.972222
    5       -4.643600
    6       -4.353174
    7       -3.797344
    8       -3.277782
    9       -2.170635
   10        0.500885
   11        0.604571
   12        0.761852
   13        0.812482
   14        3.426941
   15        3.698547
   16        4.526817
   17        5.031033
   18        6.179367
   19        7.441870
   20        7.547808
   21        8.565772
   22        9.194372
   23        9.840334
   24       10.274518
   25       10.533064
   26       11.004024
   27       11.740352
   28       13.523484
   29       14.023920
   30       14.253311
   31       14.547079
   32       14.878820
   33       15.522352
   34       15.608469
   35       17.752413
   36       18.617964
   37       19.608597
   38       19.761819
   39       20.272653
   40       20.824298
   41       20.872429
   42       21.110180
   43       21.313122
   44       21.385849
   45       21.386082
   46       21.751300
   47       22.021804
   48       22.310325
 
  0.1666670E+00  0.0000000E+00  0.0000000E+00  0.4166667E-01
    1      -15.803875
    2      -14.774009
    3       -7.295926
    4       -5.484298
    5       -4.998497
    6       -4.345236
    7       -4.178460
    8       -3.179872
    9       -2.408673
   10        0.180791
   11        0.437504
   12        0.492775
   13        1.210216
   14        3.844354
   15        4.089049
   16        5.040811
   17        5.944663
   18        6.528769
   19        7.659947
   20        8.088418
   21        8.196999
   22        9.355576
   23       10.062925
   24       10.294509
   25       10.355604
   26       11.250960
   27       11.673009
   28       12.438159
   29       13.118506
   30       13.985912
   31       14.926536
   32       15.355011
   33       16.444664
   34       17.004065
   35       17.028225
   36       17.600499
   37       18.126059
   38       18.770794
   39       19.235976
   40       19.895405
   41       19.942860
   42       20.065547
   43       20.316329
   44       20.791177
   45       21.010296
   46       21.097155
   47       21.322422
   48       21.337928
 
  0.2500000E+00  0.0000000E+00  0.0000000E+00  0.4166667E-01
    1      -15.393344
    2      -14.582833
    3       -7.091481
    4       -5.924972
    5       -5.655685
    6       -4.607343
    7       -3.924893
    8       -3.419242
    9       -2.837321
   10        0.050141
   11        0.217310
   12        0.759431
   13        1.622359
   14        4.434500
   15        4.697495
   16        5.620669
   17        6.549765
   18        6.872123
   19        7.424468
   20        7.541662
   21        8.578146
   22        9.804830
   23       10.192574
   24       10.833102
   25       10.924468
   26       11.522352
   27       11.777986
   28       12.226871
   29       12.450572
   30       14.025232
   31       14.645126
   32       14.745991
   33       15.362068
   34       15.856664
   35       16.028814
   36       17.030833
   37       17.325347
   38       18.551278
   39       18.574429
   40       19.000689
   41       19.060373
   42       19.567546
   43       19.904873
   44       20.043681
   45       20.284502
   46       20.618344
   47       20.986703
   48       21.445393
 
  0.3333330E+00  0.0000000E+00  0.0000000E+00  0.4166667E-01
    1      -14.930913
    2      -14.372393
    3       -7.330394
    4       -6.266593
    5       -6.017755
    6       -4.969236
    7       -3.715571
    8       -3.499810
    9       -3.084508
   10        0.053836
   11        0.197160
   12        1.261227
   13        1.923831
   14        5.076059
   15        5.405456
   16        5.785073
   17        6.359194
   18        6.487717
   19        7.523344
   20        7.897288
   21        9.191881
   22        9.453472
   23       10.374791
   24       10.504227
   25       11.585942
   26       11.660006
   27       12.523885
   28       12.545674
   29       12.822117
   30       13.449792
   31       13.484089
   32       13.787916
   33       14.674902
   34       15.110252
   35       15.756634
   36       16.754504
   37       16.875699
   38       17.409625
   39       17.862566
   40       18.167878
   41       18.865505
   42       19.062033
   43       19.157259
   44       19.517998
   45       19.688958
   46       20.217739
   47       20.640458
   48       21.448766
 
  0.4166670E+00  0.0000000E+00  0.0000000E+00  0.4166667E-01
    1      -14.545724
    2      -14.202919
    3       -7.696438
    4       -6.715633
    5       -6.109114
    6       -5.204573
    7       -3.904449
    8       -3.199805
    9       -2.920215
   10        0.027166
   11        0.435930
   12        1.650035
   13        2.089740
   14        4.545450
   15        5.775459
   16        5.863821
   17        6.623051
   18        7.177940
   19        7.997663
   20        8.120820
   21        9.136681
   22        9.449718
   23        9.605788
   24       10.247560
   25       10.961190
   26       11.158847
   27       11.839993
   28       12.467817
   29       13.276677
   30       13.319883
   31       13.894291
   32       14.954765
   33       14.981631
   34       15.027028
   35       15.876996
   36       16.137002
   37       16.451430
   38       17.432508
   39       17.654204
   40       17.813559
   41       18.246964
   42       18.752042
   43       18.829671
   44       19.058196
   45       19.338568
   46       19.557451
   47       19.744721
   48       20.987527
 
  0.5000000E+00  0.0000000E+00  0.0000000E+00  0.2083333E-01
    1      -14.391395
    2      -14.136961
    3       -7.852322
    4       -6.882261
    5       -6.181218
    6       -5.285693
    7       -3.965185
    8       -3.096150
    9       -2.756820
   10        0.043819
   11        0.566418
   12        1.783260
   13        2.140667
   14        4.052702
   15        5.844236
   16        6.155956
   17        6.865955
   18        7.654558
   19        8.173947
   20        8.514924
   21        8.898443
   22        9.299804
   23        9.476429
   24        9.727001
   25       10.310489
   26       10.632658
   27       12.063101
   28       12.333047
   29       12.978964
   30       13.574944
   31       14.017767
   32       15.249850
   33       15.462216
   34       15.682431
   35       15.946654
   36       16.266637
   37       16.362768
   38       17.349739
   39       17.496003
   40       18.026395
   41       18.032483
   42       18.630570
   43       18.820965
   44       18.904044
   45       19.067859
   46       19.186397
   47       19.348217
   48       20.827964
 
  0.8333300E-01  0.8333300E-01  0.0000000E+00  0.4166667E-01
    1      -15.893399
    2      -14.816016
    3       -7.378366
    4       -5.332088
    5       -4.780850
    6       -4.449126
    7       -4.170695
    8       -3.084579
    9       -2.317849
   10        0.276244
   11        0.354567
   12        0.558412
   13        1.137203
   14        3.718620
   15        3.961701
   16        4.912873
   17        5.680268
   18        6.418970
   19        7.670154
   20        8.130032
   21        8.269058
   22        9.308995
   23        9.619893
   24       10.170974
   25       10.574801
   26       11.063517
   27       11.721922
   28       12.956963
   29       13.101415
   30       14.300087
   31       14.584145
   32       15.233151
   33       16.216054
   34       16.926406
   35       17.916253
   36       18.386287
   37       18.469717
   38       18.718324
   39       18.925539
   40       19.645445
   41       19.828534
   42       20.013094
   43       20.495162
   44       20.615216
   45       21.023164
   46       21.313273
   47       21.663046
   48       21.853772
 
  0.1666670E+00  0.8333300E-01  0.0000000E+00  0.8333333E-01
    1      -15.549153
    2      -14.654411
    3       -7.104294
    4       -5.792401
    5       -5.324128
    6       -4.704949
    7       -4.136692
    8       -3.113021
    9       -2.664879
   10       -0.013107
   11        0.332043
   12        0.425899
   13        1.589814
   14        4.227214
   15        4.465944
   16        5.440571
   17        6.660402
   18        6.842520
   19        7.570646
   20        7.998755
   21        8.295616
   22        9.487557
   23        9.764090
   24       10.300414
   25       10.976485
   26       11.294279
   27       11.390368
   28       12.403392
   29       12.743085
   30       14.383999
   31       14.766686
   32       15.720232
   33       15.886959
   34       16.201123
   35       17.030329
   36       17.183799
   37       17.386376
   38       17.579725
   39       18.335424
   40       18.527126
   41       19.047672
   42       19.631263
   43       19.883432
   44       20.102125
   45       20.645753
   46       21.215993
   47       21.246599
   48       21.403333
 
  0.2500000E+00  0.8333300E-01  0.0000000E+00  0.8333333E-01
    1      -15.109215
    2      -14.450530
    3       -7.130214
    4       -5.978770
    5       -5.969821
    6       -5.059052
    7       -3.878691
    8       -3.403893
    9       -2.968557
   10       -0.085937
   11        0.267906
   12        0.824405
   13        1.948010
   14        4.890877
   15        5.154297
   16        6.101732
   17        6.433556
   18        6.929740
   19        7.574269
   20        7.741514
   21        8.945223
   22        9.679881
   23        9.934002
   24       10.418511
   25       10.874590
   26       11.511296
   27       11.894398
   28       13.027730
   29       13.050982
   30       13.623233
   31       13.849590
   32       14.647167
   33       14.988895
   34       15.259925
   35       16.225239
   36       16.500549
   37       16.698183
   38       17.146109
   39       17.561472
   40       17.971092
   41       18.163438
   42       18.769560
   43       19.759124
   44       19.874226
   45       20.502204
   46       20.559874
   47       21.113283
   48       21.540893
 
  0.3333330E+00  0.8333300E-01  0.0000000E+00  0.8333333E-01
    1      -14.677708
    2      -14.255131
    3       -7.463279
    4       -6.570790
    5       -6.003634
    6       -5.227187
    7       -3.746571
    8       -3.728466
    9       -2.870153
   10        0.019810
   11        0.356547
   12        1.314550
   13        2.103199
   14        5.115044
   15        5.824148
   16        5.853355
   17        6.713096
   18        6.903488
   19        7.908387
   20        8.158795
   21        8.951984
   22        9.457388
   23        9.580616
   24       10.716250
   25       11.336483
   26       11.620654
   27       12.129716
   28       12.311001
   29       12.847847
   30       13.092554
   31       13.634942
   32       14.433591
   33       14.457422
   34       15.308520
   35       15.946193
   36       16.100744
   37       16.355410
   38       16.655150
   39       17.187573
   40       17.438297
   41       17.978125
   42       18.666337
   43       18.910307
   44       19.269385
   45       19.860147
   46       19.981093
   47       20.789886
   48       21.322967
 
  0.4166670E+00  0.8333300E-01  0.0000000E+00  0.8333333E-01
    1      -14.398966
    2      -14.132359
    3       -7.716226
    4       -6.915868
    5       -6.124812
    6       -5.286918
    7       -3.926715
    8       -3.616882
    9       -2.629912
   10        0.068646
   11        0.566255
   12        1.713899
   13        2.029601
   14        4.304372
   15        6.267402
   16        6.361154
   17        6.899479
   18        7.707427
   19        8.226734
   20        8.234960
   21        8.702417
   22        9.350836
   23        9.583410
   24        9.900931
   25       10.753169
   26       10.823072
   27       12.174889
   28       12.189226
   29       12.944413
   30       13.267353
   31       14.025525
   32       14.473792
   33       14.727678
   34       15.377613
   35       15.932310
   36       16.027456
   37       16.462119
   38       16.615759
   39       16.878756
   40       17.155391
   41       18.269144
   42       18.665191
   43       18.735047
   44       18.997048
   45       19.268174
   46       19.421700
   47       20.009455
   48       21.114502
 
  0.1666670E+00  0.1666670E+00  0.0000000E+00  0.4166667E-01
    1      -15.172978
    2      -14.477712
    3       -7.032312
    4       -5.928528
    5       -5.759058
    6       -5.284280
    7       -4.094623
    8       -3.155396
    9       -2.910930
   10       -0.184304
   11        0.321040
   12        0.529817
   13        2.009829
   14        4.827563
   15        5.063655
   16        6.064307
   17        6.858113
   18        7.258303
   19        7.882995
   20        7.927105
   21        8.549990
   22        9.528241
   23        9.593493
   24       10.071436
   25       10.306438
   26       11.522850
   27       11.743660
   28       12.867928
   29       13.041068
   30       14.767580
   31       14.772942
   32       15.021499
   33       15.141131
   34       15.259252
   35       15.802792
   36       16.143436
   37       16.304678
   38       16.581251
   39       17.673673
   40       17.891139
   41       18.197196
   42       18.783322
   43       19.208831
   44       20.050774
   45       20.384115
   46       20.492765
   47       21.372417
   48       21.566666
 
  0.2500000E+00  0.1666670E+00  0.0000000E+00  0.8333333E-01
    1      -14.755070
    2      -14.281913
    3       -7.213824
    4       -6.452835
    5       -5.839876
    6       -5.386857
    7       -4.350569
    8       -3.455388
    9       -2.870447
   10       -0.043434
   11        0.367575
   12        0.856827
   13        2.246017
   14        5.470373
   15        5.810027
   16        6.161609
   17        6.848576
   18        7.341803
   19        8.029764
   20        8.196429
   21        8.738048
   22        9.506958
   23        9.764981
   24       10.237072
   25       10.665828
   26       11.842265
   27       12.137011
   28       12.471955
   29       12.685798
   30       13.467556
   31       13.636087
   32       14.177980
   33       14.797005
   34       14.854298
   35       15.499201
   36       15.544519
   37       15.899367
   38       16.476808
   39       17.120611
   40       17.203319
   41       17.981205
   42       18.297311
   43       19.125387
   44       19.263835
   45       20.166007
   46       20.340849
   47       20.951086
   48       20.993756
 
  0.3333330E+00  0.1666670E+00  0.0000000E+00  0.8333333E-01
    1      -14.413884
    2      -14.123114
    3       -7.398737
    4       -6.977238
    5       -5.946512
    6       -5.312461
    7       -4.473350
    8       -3.815867
    9       -2.621144
   10        0.049669
   11        0.602351
   12        1.201141
   13        2.289550
   14        4.914944
   15        6.535552
   16        6.568791
   17        7.471608
   18        7.509140
   19        7.996873
   20        8.526266
   21        8.693812
   22        9.690762
   23        9.727006
   24       10.563252
   25       11.056055
   26       11.288956
   27       11.725999
   28       12.372520
   29       12.403400
   30       12.843097
   31       13.165269
   32       13.695982
   33       14.275623
   34       14.760089
   35       14.764856
   36       15.090362
   37       16.109037
   38       16.453104
   39       17.015383
   40       17.196968
   41       17.676442
   42       17.842583
   43       19.016235
   44       19.391544
   45       19.823475
   46       19.950431
   47       20.105631
   48       20.896821
 
  0.4166670E+00  0.1666670E+00  0.0000000E+00  0.4166667E-01
    1      -14.279519
    2      -14.060975
    3       -7.464150
    4       -7.167856
    5       -6.067680
    6       -5.247047
    7       -4.470170
    8       -3.986509
    9       -2.445064
   10       -0.047852
   11        0.852457
   12        1.353411
   13        2.263753
   14        4.455853
   15        7.070244
   16        7.091364
   17        7.359897
   18        7.470373
   19        8.478683
   20        8.494936
   21        8.988155
   22        9.374778
   23        9.842292
   24       10.075863
   25       10.806572
   26       10.849556
   27       11.700443
   28       12.195763
   29       12.410089
   30       13.212200
   31       13.517690
   32       13.750922
   33       14.054667
   34       14.293824
   35       14.757751
   36       14.807239
   37       16.284560
   38       16.386562
   39       16.961088
   40       17.085636
   41       17.345572
   42       17.620020
   43       18.399557
   44       19.506666
   45       19.562660
   46       20.173147
   47       20.313625
   48       20.925195
 
  0.2500000E+00  0.2500000E+00  0.0000000E+00  0.4166667E-01
    1      -14.421247
    2      -14.118477
    3       -7.208564
    4       -7.005460
    5       -5.721988
    6       -5.334247
    7       -5.023948
    8       -3.744665
    9       -2.642425
   10        0.020908
   11        0.629451
   12        0.957558
   13        2.436431
   14        5.417568
   15        6.292212
   16        6.568699
   17        7.198510
   18        7.883785
   19        8.035601
   20        8.856493
   21        9.372799
   22        9.807953
   23       10.103415
   24       10.470573
   25       10.703194
   26       11.117907
   27       12.029023
   28       12.208121
   29       12.406885
   30       12.565955
   31       13.196911
   32       13.202225
   33       13.526613
   34       13.568814
   35       15.167999
   36       15.385573
   37       15.728622
   38       16.183943
   39       16.795458
   40       16.832540
   41       17.531275
   42       18.733882
   43       18.969892
   44       19.330830
   45       19.667198
   46       19.912134
   47       20.379163
   48       20.967104
 
  0.3333330E+00  0.2500000E+00  0.0000000E+00  0.8333333E-01
    1      -14.214934
    2      -14.014812
    3       -7.345101
    4       -7.072551
    5       -5.932125
    6       -5.329725
    7       -5.146411
    8       -4.070054
    9       -2.334760
   10       -0.257845
   11        1.015404
   12        1.106491
   13        2.559854
   14        4.923570
   15        6.149305
   16        7.225557
   17        7.803053
   18        8.478399
   19        8.985025
   20        9.107555
   21        9.587686
   22        9.890104
   23        9.964625
   24       10.562299
   25       10.654298
   26       11.174006
   27       11.506581
   28       11.593801
   29       11.895732
   30       12.129820
   31       12.688730
   32       13.063059
   33       13.406465
   34       13.600505
   35       14.402258
   36       14.669728
   37       15.486824
   38       15.761244
   39       16.674231
   40       16.902865
   41       17.287484
   42       17.656668
   43       18.305996
   44       19.067736
   45       19.245393
   46       20.559429
   47       20.683490
   48       21.446871
 
  0.3333330E+00  0.3333330E+00  0.0000000E+00  0.1388889E-01
    1      -14.141137
    2      -13.972244
    3       -7.489055
    4       -6.668741
    5       -6.178636
    6       -5.687344
    7       -4.992774
    8       -4.254071
    9       -2.145950
   10       -0.494381
   11        0.926964
   12        1.367731
   13        2.698685
   14        5.109854
   15        5.548620
   16        7.537785
   17        8.389313
   18        8.997012
   19        9.530876
   20        9.624250
   21        9.770122
   22        9.858853
   23       10.401577
   24       10.638132
   25       10.698066
   26       10.710531
   27       11.174495
   28       11.425570
   29       11.836131
   30       11.854894
   31       11.881055
   32       12.055535
   33       13.473542
   34       14.097929
   35       14.133381
   36       14.609611
   37       14.769759
   38       14.979198
   39       16.417437
   40       17.074521
   41       17.256069
   42       17.482023
   43       17.993072
   44       18.254705
   45       19.506567
   46       20.416745
   47       21.365339
   48       21.920287
 
  0.3333330E+00  0.3333330E+00  0.0000000E+00  0.0000000E+00
    1      -14.141137
    2      -13.972244
    3       -7.489055
    4       -6.668741
    5       -6.178636
    6       -5.687344
    7       -4.992774
    8       -4.254071
    9       -2.145950
   10       -0.494381
   11        0.926964
   12        1.367731
   13        2.698685
   14        5.109854
   15        5.548620
   16        7.537785
   17        8.389313
   18        8.997012
   19        9.530876
   20        9.624250
   21        9.770122
   22        9.858853
   23       10.401577
   24       10.638132
   25       10.698066
   26       10.710531
   27       11.174495
   28       11.425570
   29       11.836131
   30       11.854894
   31       11.881055
   32       12.055535
   33       13.473542
   34       14.097929
   35       14.133381
   36       14.609611
   37       14.769759
   38       14.979198
   39       16.417437
   40       17.074521
   41       17.256069
   42       17.482023
   43       17.993072
   44       18.254705
   45       19.506567
   46       20.416745
   47       21.365339
   48       21.920287
 
  0.3306400E+00  0.3286690E+00  0.0000000E+00  0.0000000E+00
    1      -14.141593
    2      -13.972511
    3       -7.488154
    4       -6.674161
    5       -6.173289
    6       -5.686026
    7       -4.994070
    8       -4.252574
    9       -2.147395
   10       -0.492580
   11        0.927521
   12        1.365974
   13        2.697783
   14        5.106950
   15        5.554238
   16        7.535522
   17        8.384264
   18        8.993616
   19        9.529739
   20        9.624239
   21        9.766032
   22        9.855423
   23       10.383523
   24       10.649135
   25       10.705231
   26       10.720864
   27       11.158633
   28       11.440108
   29       11.778469
   30       11.877175
   31       11.921888
   32       12.060001
   33       13.468518
   34       14.094625
   35       14.139290
   36       14.605552
   37       14.774169
   38       14.988673
   39       16.422861
   40       17.075080
   41       17.238008
   42       17.493833
   43       18.003128
   44       18.254799
   45       19.502531
   46       20.421301
   47       21.355716
   48       21.921433
 
  0.3279470E+00  0.3240050E+00  0.0000000E+00  0.0000000E+00
    1      -14.142998
    2      -13.973326
    3       -7.485431
    4       -6.689591
    5       -6.157829
    6       -5.682313
    7       -4.997963
    8       -4.248068
    9       -2.151810
   10       -0.487179
   11        0.929102
   12        1.360617
   13        2.695113
   14        5.099452
   15        5.569909
   16        7.528505
   17        8.368951
   18        8.983192
   19        9.526024
   20        9.625127
   21        9.754580
   22        9.844727
   23       10.340972
   24       10.678863
   25       10.724822
   26       10.744991
   27       11.118213
   28       11.478152
   29       11.709115
   30       11.900938
   31       11.983049
   32       12.071479
   33       13.454674
   34       14.082691
   35       14.156925
   36       14.597935
   37       14.786420
   38       15.014187
   39       16.439511
   40       17.076489
   41       17.189864
   42       17.527151
   43       18.029331
   44       18.254843
   45       19.491050
   46       20.434790
   47       21.327547
   48       21.924670
 
  0.3252540E+00  0.3193410E+00  0.0000000E+00  0.0000000E+00
    1      -14.145383
    2      -13.974702
    3       -7.480854
    4       -6.713036
    5       -6.133999
    6       -5.676438
    7       -5.004399
    8       -4.240562
    9       -2.159207
   10       -0.478199
   11        0.931595
   12        1.351604
   13        2.690751
   14        5.089427
   15        5.593642
   16        7.516588
   17        8.343490
   18        8.965545
   19        9.518040
   20        9.625325
   21        9.740588
   22        9.827841
   23       10.290705
   24       10.711814
   25       10.751585
   26       10.783387
   27       11.068415
   28       11.528224
   29       11.641745
   30       11.930024
   31       12.046202
   32       12.087588
   33       13.434978
   34       14.059586
   35       14.185143
   36       14.593686
   37       14.805211
   38       15.051068
   39       16.467751
   40       17.078400
   41       17.125759
   42       17.572878
   43       18.066987
   44       18.254634
   45       19.473499
   46       20.456494
   47       21.283402
   48       21.928010
 
  0.3225620E+00  0.3146770E+00  0.0000000E+00  0.0000000E+00
    1      -14.148784
    2      -13.976646
    3       -7.474396
    4       -6.742180
    5       -6.104032
    6       -5.668479
    7       -5.013245
    8       -4.230139
    9       -2.169536
   10       -0.465737
   11        0.934888
   12        1.338911
   13        2.684785
   14        5.078773
   15        5.623558
   16        7.499741
   17        8.308400
   18        8.940610
   19        9.502406
   20        9.619907
   21        9.732189
   22        9.808249
   23       10.240575
   24       10.741837
   25       10.776027
   26       10.834835
   27       11.023922
   28       11.576955
   29       11.582607
   30       11.964223
   31       12.106744
   32       12.110244
   33       13.413059
   34       14.024072
   35       14.221885
   36       14.597369
   37       14.829534
   38       15.095687
   39       16.507609
   40       17.055643
   41       17.080411
   42       17.624642
   43       18.112960
   44       18.254020
   45       19.451602
   46       20.485291
   47       21.226812
   48       21.928192
 
  0.3198690E+00  0.3100130E+00  0.0000000E+00  0.0000000E+00
    1      -14.153237
    2      -13.979169
    3       -7.466032
    4       -6.774987
    5       -6.070042
    6       -5.658366
    7       -5.024313
    8       -4.216961
    9       -2.182702
   10       -0.449964
   11        0.938840
   12        1.322534
   13        2.677313
   14        5.069001
   15        5.658169
   16        7.477987
   17        8.264525
   18        8.908403
   19        9.474886
   20        9.604822
   21        9.735787
   22        9.790845
   23       10.193173
   24       10.771096
   25       10.782399
   26       10.893801
   27       11.001992
   28       11.515340
   29       11.636910
   30       12.002642
   31       12.128186
   32       12.175276
   33       13.392352
   34       13.976677
   35       14.264890
   36       14.610514
   37       14.858479
   38       15.145755
   39       16.558820
   40       16.984888
   41       17.082114
   42       17.679445
   43       18.165191
   44       18.252923
   45       19.427166
   46       20.519948
   47       21.161155
   48       21.921825
 
  0.3333330E+00  0.3333330E+00  0.0000000E+00  0.0000000E+00
    1      -14.141137
    2      -13.972244
    3       -7.489055
    4       -6.668741
    5       -6.178636
    6       -5.687344
    7       -4.992774
    8       -4.254071
    9       -2.145950
   10       -0.494381
   11        0.926964
   12        1.367731
   13        2.698685
   14        5.109854
   15        5.548620
   16        7.537785
   17        8.389313
   18        8.997012
   19        9.530876
   20        9.624250
   21        9.770122
   22        9.858853
   23       10.401577
   24       10.638132
   25       10.698066
   26       10.710531
   27       11.174495
   28       11.425570
   29       11.836131
   30       11.854894
   31       11.881055
   32       12.055535
   33       13.473542
   34       14.097929
   35       14.133381
   36       14.609611
   37       14.769759
   38       14.979198
   39       16.417437
   40       17.074521
   41       17.256069
   42       17.482023
   43       17.993072
   44       18.254705
   45       19.506567
   46       20.416745
   47       21.365339
   48       21.920287
 
  0.3401450E+00  0.3274340E+00  0.0000000E+00  0.0000000E+00
    1      -14.141584
    2      -13.972507
    3       -7.488170
    4       -6.674099
    5       -6.173404
    6       -5.685996
    7       -4.994046
    8       -4.252607
    9       -2.147367
   10       -0.492616
   11        0.927523
   12        1.366004
   13        2.697789
   14        5.106864
   15        5.554275
   16        7.535576
   17        8.384379
   18        8.993699
   19        9.529705
   20        9.623742
   21        9.766422
   22        9.855630
   23       10.383851
   24       10.645727
   25       10.705161
   26       10.723646
   27       11.159379
   28       11.439187
   29       11.781122