unknown system                          
           1
     3.190406    0.000000    0.000000
    -1.595203    2.762973    0.000000
     0.000000    0.000000   17.658536
   Mo   S 
   1   2
Direct configuration=     1
   0.33333334  0.66666669  0.50000000
   0.66666669  0.33333334  0.41170028
   0.66666669  0.33333334  0.58829969
